Afatinib_DIs38Xm_GMX.gro created by acpype (v: 2023.10.27) on Mon Nov  3 09:38:59 2025
   59
    1  MOL   C1    1   2.029   1.269  -0.666
    1  MOL   N1    2   1.888   1.307  -0.652
    1  MOL   C2    3   1.834   1.251  -0.528
    1  MOL   C3    4   1.874   1.452  -0.655
    1  MOL   C4    5   1.768   1.495  -0.752
    1  MOL   C5    6   1.642   1.523  -0.717
    1  MOL   C6    7   1.532   1.427  -0.747
    1  MOL   O1    8   1.529   1.315  -0.696
    1  MOL   N2    9   1.438   1.481  -0.836
    1  MOL   C7   10   1.323   1.422  -0.887
    1  MOL   C8   11   1.330   1.347  -1.003
    1  MOL   C9   12   1.214   1.287  -1.055
    1  MOL  C10   13   1.214   1.211  -1.172
    1  MOL   N3   14   1.336   1.192  -1.243
    1  MOL  C11   15   1.368   1.205  -1.379
    1  MOL  C12   16   1.501   1.204  -1.419
    1  MOL  C13   17   1.535   1.217  -1.554
    1  MOL  C14   18   1.434   1.231  -1.649
    1  MOL   F1   19   1.467   1.244  -1.778
    1  MOL  C15   20   1.300   1.234  -1.609
    1  MOL  CL1   21   1.175   1.253  -1.727
    1  MOL  C16   22   1.267   1.221  -1.474
    1  MOL   N4   23   1.105   1.152  -1.223
    1  MOL  C17   24   0.992   1.172  -1.153
    1  MOL   N5   25   0.979   1.243  -1.039
    1  MOL  C18   26   1.090   1.300  -0.990
    1  MOL  C19   27   1.087   1.375  -0.873
    1  MOL  C20   28   1.201   1.436  -0.821
    1  MOL   O2   29   1.191   1.508  -0.706
    1  MOL  C21   30   1.137   1.441  -0.592
    1  MOL  C22   31   1.248   1.374  -0.515
    1  MOL  C23   32   1.307   1.489  -0.436
    1  MOL   O3   33   1.200   1.581  -0.412
    1  MOL  C24   34   1.088   1.545  -0.494
    1  MOL   H1   35   2.059   1.279  -0.772
    1  MOL   H2   36   2.092   1.334  -0.604
    1  MOL   H3   37   2.043   1.164  -0.634
    1  MOL   H4   38   1.724   1.255  -0.531
    1  MOL   H5   39   1.865   1.147  -0.517
    1  MOL   H6   40   1.870   1.310  -0.442
    1  MOL   H7   41   1.845   1.486  -0.554
    1  MOL   H8   42   1.970   1.495  -0.685
    1  MOL   H9   43   1.797   1.504  -0.858
    1  MOL  H10   44   1.620   1.617  -0.666
    1  MOL  H11   45   1.455   1.576  -0.869
    1  MOL  H12   46   1.426   1.335  -1.056
    1  MOL  H13   47   1.417   1.190  -1.183
    1  MOL  H14   48   1.582   1.191  -1.344
    1  MOL  H15   49   1.640   1.215  -1.585
    1  MOL  H16   50   1.162   1.223  -1.442
    1  MOL  H17   51   0.900   1.126  -1.192
    1  MOL  H18   52   0.991   1.388  -0.820
    1  MOL  H19   53   1.060   1.372  -0.629
    1  MOL  H20   54   1.208   1.296  -0.447
    1  MOL  H21   55   1.321   1.322  -0.579
    1  MOL  H22   56   1.348   1.452  -0.340
    1  MOL  H23   57   1.389   1.537  -0.492
    1  MOL  H24   58   1.008   1.503  -0.431
    1  MOL  H25   59   1.047   1.633  -0.546
   26.46600    15.05600    26.72800
