; Abemaciclib_94NAMRd_GMX.itp created by acpype (v: 2023.10.27) on Wed Nov  5 09:29:42 2025

[ atomtypes ]
;name   bond_type     mass     charge   ptype   sigma         epsilon       Amb
 c3       c3          0.00000  0.00000   A     3.39771e-01   4.51035e-01 ; 1.91  0.1078
 n3       n3          0.00000  0.00000   A     3.36510e-01   3.58987e-01 ; 1.89  0.0858
 c6       c6          0.00000  0.00000   A     3.39771e-01   4.51035e-01 ; 1.91  0.1078
 ca       ca          0.00000  0.00000   A     3.31521e-01   4.13379e-01 ; 1.86  0.0988
 nu       nu          0.00000  0.00000   A     3.27904e-01   6.46428e-01 ; 1.84  0.1545
 nb       nb          0.00000  0.00000   A     3.38417e-01   3.93714e-01 ; 1.90  0.0941
 f        f           0.00000  0.00000   A     3.03422e-01   3.48109e-01 ; 1.70  0.0832
 cp       cp          0.00000  0.00000   A     3.31521e-01   4.13379e-01 ; 1.86  0.0988
 nc       nc          0.00000  0.00000   A     3.38417e-01   3.93714e-01 ; 1.90  0.0941
 cd       cd          0.00000  0.00000   A     3.31521e-01   4.13379e-01 ; 1.86  0.0988
 na       na          0.00000  0.00000   A     3.20581e-01   8.54373e-01 ; 1.80  0.2042
 hc       hc          0.00000  0.00000   A     2.60018e-01   8.70272e-02 ; 1.46  0.0208
 h1       h1          0.00000  0.00000   A     2.42200e-01   8.70272e-02 ; 1.36  0.0208
 ha       ha          0.00000  0.00000   A     2.62548e-01   6.73624e-02 ; 1.47  0.0161
 hn       hn          0.00000  0.00000   A     1.10650e-01   4.18400e-02 ; 0.62  0.0100
 h4       h4          0.00000  0.00000   A     2.53639e-01   6.73624e-02 ; 1.42  0.0161

[ moleculetype ]
;name            nrexcl
 Abemaciclib_94NAMRd 3

[ atoms ]
;   nr  type  resi  res  atom  cgnr     charge      mass       ; qtot   bond_type
     1   c3     1   MOL    C1    1    -0.131100     12.01000 ; qtot -0.131
     2   c3     1   MOL    C2    2     0.170800     12.01000 ; qtot 0.040
     3   n3     1   MOL    N1    3    -0.735600     14.01000 ; qtot -0.696
     4   c6     1   MOL    C3    4     0.170300     12.01000 ; qtot -0.526
     5   c6     1   MOL    C4    5     0.166300     12.01000 ; qtot -0.359
     6   n3     1   MOL    N2    6    -0.731600     14.01000 ; qtot -1.091
     7   c3     1   MOL    C5    7     0.220100     12.01000 ; qtot -0.871
     8   ca     1   MOL    C6    8    -0.204600     12.01000 ; qtot -1.075
     9   ca     1   MOL    C7    9    -0.091000     12.01000 ; qtot -1.166
    10   ca     1   MOL    C8   10    -0.201300     12.01000 ; qtot -1.368
    11   ca     1   MOL    C9   11     0.593200     12.01000 ; qtot -0.775
    12   nu     1   MOL    N3   12    -0.786600     14.01000 ; qtot -1.561
    13   ca     1   MOL   C10   13     0.848898     12.01000 ; qtot -0.712
    14   nb     1   MOL    N4   14    -0.707000     14.01000 ; qtot -1.419
    15   ca     1   MOL   C11   15     0.430200     12.01000 ; qtot -0.989
    16   ca     1   MOL   C12   16    -0.145700     12.01000 ; qtot -1.135
    17    f     1   MOL    F1   17    -0.116900     19.00000 ; qtot -1.252
    18   cp     1   MOL   C13   18     0.510800     12.01000 ; qtot -0.741
    19   cp     1   MOL   C14   19    -0.126500     12.01000 ; qtot -0.867
    20   ca     1   MOL   C15   20    -0.168000     12.01000 ; qtot -1.035
    21   ca     1   MOL   C16   21     0.183900     12.01000 ; qtot -0.851
    22    f     1   MOL    F2   22    -0.120900     19.00000 ; qtot -0.972
    23   ca     1   MOL   C17   23     0.048400     12.01000 ; qtot -0.924
    24   nc     1   MOL    N5   24    -0.556100     14.01000 ; qtot -1.480
    25   cd     1   MOL   C18   25     0.432800     12.01000 ; qtot -1.047
    26   c3     1   MOL   C19   26    -0.116400     12.01000 ; qtot -1.164
    27   na     1   MOL    N6   27    -0.161300     14.01000 ; qtot -1.325
    28   c3     1   MOL   C20   28     0.059000     12.01000 ; qtot -1.266
    29   c3     1   MOL   C21   29    -0.112600     12.01000 ; qtot -1.379
    30   c3     1   MOL   C22   30    -0.112600     12.01000 ; qtot -1.491
    31   ca     1   MOL   C23   31    -0.061200     12.01000 ; qtot -1.552
    32   ca     1   MOL   C24   32    -0.099000     12.01000 ; qtot -1.651
    33   nb     1   MOL    N7   33    -0.720000     14.01000 ; qtot -2.371
    34   nb     1   MOL    N8   34    -0.701000     14.01000 ; qtot -3.072
    35   ca     1   MOL   C25   35     0.430200     12.01000 ; qtot -2.642
    36   c6     1   MOL   C26   36     0.166300     12.01000 ; qtot -2.476
    37   c6     1   MOL   C27   37     0.170300     12.01000 ; qtot -2.306
    38   hc     1   MOL    H1   38     0.038367      1.00800 ; qtot -2.267
    39   hc     1   MOL    H2   39     0.038367      1.00800 ; qtot -2.229
    40   hc     1   MOL    H3   40     0.038367      1.00800 ; qtot -2.190
    41   h1     1   MOL    H4   41     0.049200      1.00800 ; qtot -2.141
    42   h1     1   MOL    H5   42     0.049200      1.00800 ; qtot -2.092
    43   h1     1   MOL    H6   43     0.037700      1.00800 ; qtot -2.054
    44   h1     1   MOL    H7   44     0.037700      1.00800 ; qtot -2.017
    45   h1     1   MOL    H8   45     0.039200      1.00800 ; qtot -1.977
    46   h1     1   MOL    H9   46     0.039200      1.00800 ; qtot -1.938
    47   h1     1   MOL   H10   47     0.042700      1.00800 ; qtot -1.896
    48   h1     1   MOL   H11   48     0.042700      1.00800 ; qtot -1.853
    49   ha     1   MOL   H12   49     0.142000      1.00800 ; qtot -1.711
    50   ha     1   MOL   H13   50     0.162000      1.00800 ; qtot -1.549
    51   hn     1   MOL   H14   51     0.440800      1.00800 ; qtot -1.108
    52   h4     1   MOL   H15   52     0.044100      1.00800 ; qtot -1.064
    53   ha     1   MOL   H16   53     0.158000      1.00800 ; qtot -0.906
    54   hc     1   MOL   H17   54     0.064367      1.00800 ; qtot -0.842
    55   hc     1   MOL   H18   55     0.064367      1.00800 ; qtot -0.777
    56   hc     1   MOL   H19   56     0.064367      1.00800 ; qtot -0.713
    57   h1     1   MOL   H20   57     0.068700      1.00800 ; qtot -0.644
    58   hc     1   MOL   H21   58     0.049700      1.00800 ; qtot -0.594
    59   hc     1   MOL   H22   59     0.049700      1.00800 ; qtot -0.545
    60   hc     1   MOL   H23   60     0.049700      1.00800 ; qtot -0.495
    61   hc     1   MOL   H24   61     0.049700      1.00800 ; qtot -0.445
    62   hc     1   MOL   H25   62     0.049700      1.00800 ; qtot -0.396
    63   hc     1   MOL   H26   63     0.049700      1.00800 ; qtot -0.346
    64   ha     1   MOL   H27   64     0.152000      1.00800 ; qtot -0.194
    65   h4     1   MOL   H28   65     0.040100      1.00800 ; qtot -0.154
    66   h1     1   MOL   H29   66     0.039200      1.00800 ; qtot -0.115
    67   h1     1   MOL   H30   67     0.039200      1.00800 ; qtot -0.075
    68   h1     1   MOL   H31   68     0.037700      1.00800 ; qtot -0.038
    69   h1     1   MOL   H32   69     0.037700      1.00800 ; qtot 0.000

[ bonds ]
;   ai     aj funct   r             k
     1      2   1    1.5354e-01    1.9154e+05 ;     C1 - C2    
     1     38   1    1.0962e-01    2.8891e+05 ;     C1 - H1    
     1     39   1    1.0962e-01    2.8891e+05 ;     C1 - H2    
     1     40   1    1.0962e-01    2.8891e+05 ;     C1 - H3    
     2      3   1    1.4626e-01    2.1410e+05 ;     C2 - N1    
     2     41   1    1.0969e-01    2.8804e+05 ;     C2 - H4    
     2     42   1    1.0969e-01    2.8804e+05 ;     C2 - H5    
     3      4   1    1.4657e-01    2.1199e+05 ;     N1 - C3    
     3     37   1    1.4657e-01    2.1199e+05 ;     N1 - C27   
     4      5   1    1.5384e-01    1.8979e+05 ;     C3 - C4    
     4     43   1    1.0984e-01    2.8620e+05 ;     C3 - H6    
     4     44   1    1.0984e-01    2.8620e+05 ;     C3 - H7    
     5      6   1    1.4657e-01    2.1199e+05 ;     C4 - N2    
     5     45   1    1.0984e-01    2.8620e+05 ;     C4 - H8    
     5     46   1    1.0984e-01    2.8620e+05 ;     C4 - H9    
     6      7   1    1.4626e-01    2.1410e+05 ;     N2 - C5    
     6     36   1    1.4657e-01    2.1199e+05 ;     N2 - C26   
     7      8   1    1.5147e-01    2.0410e+05 ;     C5 - C6    
     7     47   1    1.0969e-01    2.8804e+05 ;     C5 - H10   
     7     48   1    1.0969e-01    2.8804e+05 ;     C5 - H11   
     8      9   1    1.3986e-01    2.9644e+05 ;     C6 - C7    
     8     35   1    1.3986e-01    2.9644e+05 ;     C6 - C25   
     9     10   1    1.3986e-01    2.9644e+05 ;     C7 - C8    
     9     49   1    1.0860e-01    3.0183e+05 ;     C7 - H12   
    10     11   1    1.3986e-01    2.9644e+05 ;     C8 - C9    
    10     50   1    1.0860e-01    3.0183e+05 ;     C8 - H13   
    11     12   1    1.3944e-01    2.6771e+05 ;     C9 - N3    
    11     34   1    1.3392e-01    3.2341e+05 ;     C9 - N8    
    12     13   1    1.3944e-01    2.6771e+05 ;     N3 - C10   
    12     51   1    1.0137e-01    3.9538e+05 ;     N3 - H14   
    13     14   1    1.3392e-01    3.2341e+05 ;    C10 - N4    
    13     33   1    1.3392e-01    3.2341e+05 ;    C10 - N7    
    14     15   1    1.3392e-01    3.2341e+05 ;     N4 - C11   
    15     16   1    1.3986e-01    2.9644e+05 ;    C11 - C12   
    15     52   1    1.0885e-01    2.9859e+05 ;    C11 - H15   
    16     17   1    1.3502e-01    2.8070e+05 ;    C12 - F1    
    16     18   1    1.4056e-01    2.8959e+05 ;    C12 - C13   
    18     19   1    1.4829e-01    2.2541e+05 ;    C13 - C14   
    18     33   1    1.3377e-01    3.2511e+05 ;    C13 - N7    
    19     20   1    1.4056e-01    2.8959e+05 ;    C14 - C15   
    19     32   1    1.4056e-01    2.8959e+05 ;    C14 - C24   
    20     21   1    1.3986e-01    2.9644e+05 ;    C15 - C16   
    20     53   1    1.0860e-01    3.0183e+05 ;    C15 - H16   
    21     22   1    1.3502e-01    2.8070e+05 ;    C16 - F2    
    21     23   1    1.3986e-01    2.9644e+05 ;    C16 - C17   
    23     24   1    1.3852e-01    2.7614e+05 ;    C17 - N5    
    23     31   1    1.3986e-01    2.9644e+05 ;    C17 - C23   
    24     25   1    1.3171e-01    3.4961e+05 ;     N5 - C18   
    25     26   1    1.5018e-01    2.1244e+05 ;    C18 - C19   
    25     27   1    1.3830e-01    2.7819e+05 ;    C18 - N6    
    26     54   1    1.0962e-01    2.8891e+05 ;    C19 - H17   
    26     55   1    1.0962e-01    2.8891e+05 ;    C19 - H18   
    26     56   1    1.0962e-01    2.8891e+05 ;    C19 - H19   
    27     28   1    1.4639e-01    2.1321e+05 ;     N6 - C20   
    27     31   1    1.3858e-01    2.7557e+05 ;     N6 - C23   
    28     29   1    1.5354e-01    1.9154e+05 ;    C20 - C21   
    28     30   1    1.5354e-01    1.9154e+05 ;    C20 - C22   
    28     57   1    1.0969e-01    2.8804e+05 ;    C20 - H20   
    29     58   1    1.0962e-01    2.8891e+05 ;    C21 - H21   
    29     59   1    1.0962e-01    2.8891e+05 ;    C21 - H22   
    29     60   1    1.0962e-01    2.8891e+05 ;    C21 - H23   
    30     61   1    1.0962e-01    2.8891e+05 ;    C22 - H24   
    30     62   1    1.0962e-01    2.8891e+05 ;    C22 - H25   
    30     63   1    1.0962e-01    2.8891e+05 ;    C22 - H26   
    31     32   1    1.3986e-01    2.9644e+05 ;    C23 - C24   
    32     64   1    1.0860e-01    3.0183e+05 ;    C24 - H27   
    34     35   1    1.3392e-01    3.2341e+05 ;     N8 - C25   
    35     65   1    1.0885e-01    2.9859e+05 ;    C25 - H28   
    36     37   1    1.5384e-01    1.8979e+05 ;    C26 - C27   
    36     66   1    1.0984e-01    2.8620e+05 ;    C26 - H29   
    36     67   1    1.0984e-01    2.8620e+05 ;    C26 - H30   
    37     68   1    1.0984e-01    2.8620e+05 ;    C27 - H31   
    37     69   1    1.0984e-01    2.8620e+05 ;    C27 - H32   

[ pairs ]
;   ai     aj    funct
     1      4      1 ;     C1 - C3    
     1     37      1 ;     C1 - C27   
     2      5      1 ;     C2 - C4    
     2     36      1 ;     C2 - C26   
     2     43      1 ;     C2 - H6    
     2     44      1 ;     C2 - H7    
     2     68      1 ;     C2 - H31   
     2     69      1 ;     C2 - H32   
     3      6      1 ;     N1 - N2    
     3     45      1 ;     N1 - H8    
     3     46      1 ;     N1 - H9    
     3     66      1 ;     N1 - H29   
     3     67      1 ;     N1 - H30   
     4      7      1 ;     C3 - C5    
     4     36      1 ;     C3 - C26   
     4     41      1 ;     C3 - H4    
     4     42      1 ;     C3 - H5    
     4     68      1 ;     C3 - H31   
     4     69      1 ;     C3 - H32   
     5      8      1 ;     C4 - C6    
     5     37      1 ;     C4 - C27   
     5     47      1 ;     C4 - H10   
     5     48      1 ;     C4 - H11   
     5     66      1 ;     C4 - H29   
     5     67      1 ;     C4 - H30   
     6      9      1 ;     N2 - C7    
     6     35      1 ;     N2 - C25   
     6     43      1 ;     N2 - H6    
     6     44      1 ;     N2 - H7    
     6     68      1 ;     N2 - H31   
     6     69      1 ;     N2 - H32   
     7     10      1 ;     C5 - C8    
     7     34      1 ;     C5 - N8    
     7     37      1 ;     C5 - C27   
     7     45      1 ;     C5 - H8    
     7     46      1 ;     C5 - H9    
     7     49      1 ;     C5 - H12   
     7     65      1 ;     C5 - H28   
     7     66      1 ;     C5 - H29   
     7     67      1 ;     C5 - H30   
     8     11      1 ;     C6 - C9    
     8     36      1 ;     C6 - C26   
     8     50      1 ;     C6 - H13   
     9     12      1 ;     C7 - N3    
     9     34      1 ;     C7 - N8    
     9     47      1 ;     C7 - H10   
     9     48      1 ;     C7 - H11   
     9     65      1 ;     C7 - H28   
    10     13      1 ;     C8 - C10   
    10     35      1 ;     C8 - C25   
    10     51      1 ;     C8 - H14   
    11     14      1 ;     C9 - N4    
    11     33      1 ;     C9 - N7    
    11     49      1 ;     C9 - H12   
    11     65      1 ;     C9 - H28   
    12     15      1 ;     N3 - C11   
    12     18      1 ;     N3 - C13   
    12     35      1 ;     N3 - C25   
    12     50      1 ;     N3 - H13   
    13     16      1 ;    C10 - C12   
    13     19      1 ;    C10 - C14   
    13     34      1 ;    C10 - N8    
    13     52      1 ;    C10 - H15   
    14     17      1 ;     N4 - F1    
    14     18      1 ;     N4 - C13   
    14     51      1 ;     N4 - H14   
    15     19      1 ;    C11 - C14   
    15     33      1 ;    C11 - N7    
    16     20      1 ;    C12 - C15   
    16     32      1 ;    C12 - C24   
    17     19      1 ;     F1 - C14   
    17     33      1 ;     F1 - N7    
    17     52      1 ;     F1 - H15   
    18     21      1 ;    C13 - C16   
    18     31      1 ;    C13 - C23   
    18     52      1 ;    C13 - H15   
    18     53      1 ;    C13 - H16   
    18     64      1 ;    C13 - H27   
    19     22      1 ;    C14 - F2    
    19     23      1 ;    C14 - C17   
    19     27      1 ;    C14 - N6    
    20     24      1 ;    C15 - N5    
    20     31      1 ;    C15 - C23   
    20     33      1 ;    C15 - N7    
    20     64      1 ;    C15 - H27   
    21     25      1 ;    C16 - C18   
    21     27      1 ;    C16 - N6    
    21     32      1 ;    C16 - C24   
    22     24      1 ;     F2 - N5    
    22     31      1 ;     F2 - C23   
    22     53      1 ;     F2 - H16   
    23     26      1 ;    C17 - C19   
    23     28      1 ;    C17 - C20   
    23     53      1 ;    C17 - H16   
    23     64      1 ;    C17 - H27   
    24     28      1 ;     N5 - C20   
    24     32      1 ;     N5 - C24   
    24     54      1 ;     N5 - H17   
    24     55      1 ;     N5 - H18   
    24     56      1 ;     N5 - H19   
    25     29      1 ;    C18 - C21   
    25     30      1 ;    C18 - C22   
    25     32      1 ;    C18 - C24   
    25     57      1 ;    C18 - H20   
    26     28      1 ;    C19 - C20   
    26     31      1 ;    C19 - C23   
    27     54      1 ;     N6 - H17   
    27     55      1 ;     N6 - H18   
    27     56      1 ;     N6 - H19   
    27     58      1 ;     N6 - H21   
    27     59      1 ;     N6 - H22   
    27     60      1 ;     N6 - H23   
    27     61      1 ;     N6 - H24   
    27     62      1 ;     N6 - H25   
    27     63      1 ;     N6 - H26   
    27     64      1 ;     N6 - H27   
    28     32      1 ;    C20 - C24   
    29     31      1 ;    C21 - C23   
    29     61      1 ;    C21 - H24   
    29     62      1 ;    C21 - H25   
    29     63      1 ;    C21 - H26   
    30     31      1 ;    C22 - C23   
    30     58      1 ;    C22 - H21   
    30     59      1 ;    C22 - H22   
    30     60      1 ;    C22 - H23   
    31     57      1 ;    C23 - H20   
    32     33      1 ;    C24 - N7    
    32     53      1 ;    C24 - H16   
    33     51      1 ;     N7 - H14   
    34     50      1 ;     N8 - H13   
    34     51      1 ;     N8 - H14   
    35     47      1 ;    C25 - H10   
    35     48      1 ;    C25 - H11   
    35     49      1 ;    C25 - H12   
    36     45      1 ;    C26 - H8    
    36     46      1 ;    C26 - H9    
    36     47      1 ;    C26 - H10   
    36     48      1 ;    C26 - H11   
    37     41      1 ;    C27 - H4    
    37     42      1 ;    C27 - H5    
    37     43      1 ;    C27 - H6    
    37     44      1 ;    C27 - H7    
    38      3      1 ;     H1 - N1    
    38     41      1 ;     H1 - H4    
    38     42      1 ;     H1 - H5    
    39      3      1 ;     H2 - N1    
    39     41      1 ;     H2 - H4    
    39     42      1 ;     H2 - H5    
    40      3      1 ;     H3 - N1    
    40     41      1 ;     H3 - H4    
    40     42      1 ;     H3 - H5    
    43     45      1 ;     H6 - H8    
    43     46      1 ;     H6 - H9    
    44     45      1 ;     H7 - H8    
    44     46      1 ;     H7 - H9    
    49     50      1 ;    H12 - H13   
    57     58      1 ;    H20 - H21   
    57     59      1 ;    H20 - H22   
    57     60      1 ;    H20 - H23   
    57     61      1 ;    H20 - H24   
    57     62      1 ;    H20 - H25   
    57     63      1 ;    H20 - H26   
    66     68      1 ;    H29 - H31   
    66     69      1 ;    H29 - H32   
    67     68      1 ;    H30 - H31   
    67     69      1 ;    H30 - H32   

[ angles ]
;   ai     aj     ak    funct   theta         cth
     1      2      3      1    1.1308e+02    5.4308e+02 ;     C1 - C2     - N1    
     1      2     41      1    1.0959e+02    3.6217e+02 ;     C1 - C2     - H4    
     1      2     42      1    1.0959e+02    3.6217e+02 ;     C1 - C2     - H5    
     2      1     38      1    1.0968e+02    3.6208e+02 ;     C2 - C1     - H1    
     2      1     39      1    1.0968e+02    3.6208e+02 ;     C2 - C1     - H2    
     2      1     40      1    1.0968e+02    3.6208e+02 ;     C2 - C1     - H3    
     2      3      4      1    1.1238e+02    6.5003e+02 ;     C2 - N1     - C3    
     2      3     37      1    1.1238e+02    6.5003e+02 ;     C2 - N1     - C27   
     3      2     41      1    1.1009e+02    4.0033e+02 ;     N1 - C2     - H4    
     3      2     42      1    1.1009e+02    4.0033e+02 ;     N1 - C2     - H5    
     3      4      5      1    1.1084e+02    5.4743e+02 ;     N1 - C3     - C4    
     3      4     43      1    1.0963e+02    4.0041e+02 ;     N1 - C3     - H6    
     3      4     44      1    1.0963e+02    4.0041e+02 ;     N1 - C3     - H7    
     3     37     36      1    1.1084e+02    5.4743e+02 ;     N1 - C27    - C26   
     3     37     68      1    1.0963e+02    4.0041e+02 ;     N1 - C27    - H31   
     3     37     69      1    1.0963e+02    4.0041e+02 ;     N1 - C27    - H32   
     4      3     37      1    1.1070e+02    6.5429e+02 ;     C3 - N1     - C27   
     4      5      6      1    1.1084e+02    5.4743e+02 ;     C3 - C4     - N2    
     4      5     45      1    1.0918e+02    3.6217e+02 ;     C3 - C4     - H8    
     4      5     46      1    1.0918e+02    3.6217e+02 ;     C3 - C4     - H9    
     5      4     43      1    1.0918e+02    3.6217e+02 ;     C4 - C3     - H6    
     5      4     44      1    1.0918e+02    3.6217e+02 ;     C4 - C3     - H7    
     5      6      7      1    1.1238e+02    6.5003e+02 ;     C4 - N2     - C5    
     5      6     36      1    1.1070e+02    6.5429e+02 ;     C4 - N2     - C26   
     6      5     45      1    1.0963e+02    4.0041e+02 ;     N2 - C4     - H8    
     6      5     46      1    1.0963e+02    4.0041e+02 ;     N2 - C4     - H9    
     6      7      8      1    1.1291e+02    5.4752e+02 ;     N2 - C5     - C6    
     6      7     47      1    1.1009e+02    4.0033e+02 ;     N2 - C5     - H10   
     6      7     48      1    1.1009e+02    4.0033e+02 ;     N2 - C5     - H11   
     6     36     37      1    1.1084e+02    5.4743e+02 ;     N2 - C26    - C27   
     6     36     66      1    1.0963e+02    4.0041e+02 ;     N2 - C26    - H29   
     6     36     67      1    1.0963e+02    4.0041e+02 ;     N2 - C26    - H30   
     7      6     36      1    1.1238e+02    6.5003e+02 ;     C5 - N2     - C26   
     7      8      9      1    1.2083e+02    5.0827e+02 ;     C5 - C6     - C7    
     7      8     35      1    1.2083e+02    5.0827e+02 ;     C5 - C6     - C25   
     8      7     47      1    1.0960e+02    3.6660e+02 ;     C6 - C5     - H10   
     8      7     48      1    1.0960e+02    3.6660e+02 ;     C6 - C5     - H11   
     8      9     10      1    1.2002e+02    5.3279e+02 ;     C6 - C7     - C8    
     8      9     49      1    1.1988e+02    3.7572e+02 ;     C6 - C7     - H12   
     8     35     34      1    1.2294e+02    5.7045e+02 ;     C6 - C25    - N8    
     8     35     65      1    1.2032e+02    3.7489e+02 ;     C6 - C25    - H28   
     9      8     35      1    1.2002e+02    5.3279e+02 ;     C7 - C6     - C25   
     9     10     11      1    1.2002e+02    5.3279e+02 ;     C7 - C8     - C9    
     9     10     50      1    1.1988e+02    3.7572e+02 ;     C7 - C8     - H13   
    10      9     49      1    1.1988e+02    3.7572e+02 ;     C8 - C7     - H12   
    10     11     12      1    1.2074e+02    5.6476e+02 ;     C8 - C9     - N3    
    10     11     34      1    1.2294e+02    5.7045e+02 ;     C8 - C9     - N8    
    11     10     50      1    1.1988e+02    3.7572e+02 ;     C9 - C8     - H13   
    11     12     13      1    1.3028e+02    6.3396e+02 ;     C9 - N3     - C10   
    11     12     51      1    1.1473e+02    4.8083e+02 ;     C9 - N3     - H14   
    11     34     35      1    1.1724e+02    6.9580e+02 ;     C9 - N8     - C25   
    12     11     34      1    1.1717e+02    6.2132e+02 ;     N3 - C9     - N8    
    12     13     14      1    1.1717e+02    6.2132e+02 ;     N3 - C10    - N4    
    12     13     33      1    1.1717e+02    6.2132e+02 ;     N3 - C10    - N7    
    13     12     51      1    1.1473e+02    4.8083e+02 ;    C10 - N3     - H14   
    13     14     15      1    1.1724e+02    6.9580e+02 ;    C10 - N4     - C11   
    13     33     18      1    1.1809e+02    6.9371e+02 ;    C10 - N7     - C13   
    14     13     33      1    1.2730e+02    6.0886e+02 ;     N4 - C10    - N7    
    14     15     16      1    1.2294e+02    5.7045e+02 ;     N4 - C11    - C12   
    14     15     52      1    1.1602e+02    4.1924e+02 ;     N4 - C11    - H15   
    15     16     17      1    1.1896e+02    6.7404e+02 ;    C11 - C12    - F1    
    15     16     18      1    1.2073e+02    5.2995e+02 ;    C11 - C12    - C13   
    16     15     52      1    1.2032e+02    3.7489e+02 ;    C12 - C11    - H15   
    16     18     19      1    1.2110e+02    5.1296e+02 ;    C12 - C13    - C14   
    16     18     33      1    1.2161e+02    5.7220e+02 ;    C12 - C13    - N7    
    17     16     18      1    1.1943e+02    6.7095e+02 ;     F1 - C12    - C13   
    18     19     20      1    1.2110e+02    5.1296e+02 ;    C13 - C14    - C15   
    18     19     32      1    1.2110e+02    5.1296e+02 ;    C13 - C14    - C24   
    19     18     33      1    1.1662e+02    5.6601e+02 ;    C14 - C13    - N7    
    19     20     21      1    1.2073e+02    5.2995e+02 ;    C14 - C15    - C16   
    19     20     53      1    1.1982e+02    3.7430e+02 ;    C14 - C15    - H16   
    19     32     31      1    1.2073e+02    5.2995e+02 ;    C14 - C24    - C23   
    19     32     64      1    1.1982e+02    3.7430e+02 ;    C14 - C24    - H27   
    20     19     32      1    1.1841e+02    5.3379e+02 ;    C15 - C14    - C24   
    20     21     22      1    1.1896e+02    6.7404e+02 ;    C15 - C16    - F2    
    20     21     23      1    1.2002e+02    5.3279e+02 ;    C15 - C16    - C17   
    21     20     53      1    1.1988e+02    3.7572e+02 ;    C16 - C15    - H16   
    21     23     24      1    1.2187e+02    5.6400e+02 ;    C16 - C17    - N5    
    21     23     31      1    1.2002e+02    5.3279e+02 ;    C16 - C17    - C23   
    22     21     23      1    1.1896e+02    6.7404e+02 ;     F2 - C16    - C17   
    23     24     25      1    1.0417e+02    7.3069e+02 ;    C17 - N5     - C18   
    23     31     27      1    1.2031e+02    5.6752e+02 ;    C17 - C23    - N6    
    23     31     32      1    1.2002e+02    5.3279e+02 ;    C17 - C23    - C24   
    24     23     31      1    1.2187e+02    5.6400e+02 ;     N5 - C17    - C23   
    24     25     26      1    1.1997e+02    5.5656e+02 ;     N5 - C18    - C19   
    24     25     27      1    1.1302e+02    6.4024e+02 ;     N5 - C18    - N6    
    25     26     54      1    1.1062e+02    3.6777e+02 ;    C18 - C19    - H17   
    25     26     55      1    1.1062e+02    3.6777e+02 ;    C18 - C19    - H18   
    25     26     56      1    1.1062e+02    3.6777e+02 ;    C18 - C19    - H19   
    25     27     28      1    1.2550e+02    6.3170e+02 ;    C18 - N6     - C20   
    25     27     31      1    1.0877e+02    6.9881e+02 ;    C18 - N6     - C23   
    26     25     27      1    1.2143e+02    5.4342e+02 ;    C19 - C18    - N6    
    27     28     29      1    1.1263e+02    5.4392e+02 ;     N6 - C20    - C21   
    27     28     30      1    1.1263e+02    5.4392e+02 ;     N6 - C20    - C22   
    27     28     57      1    1.0876e+02    4.0250e+02 ;     N6 - C20    - H20   
    27     31     32      1    1.2031e+02    5.6752e+02 ;     N6 - C23    - C24   
    28     27     31      1    1.2050e+02    6.4408e+02 ;    C20 - N6     - C23   
    28     29     58      1    1.0968e+02    3.6208e+02 ;    C20 - C21    - H21   
    28     29     59      1    1.0968e+02    3.6208e+02 ;    C20 - C21    - H22   
    28     29     60      1    1.0968e+02    3.6208e+02 ;    C20 - C21    - H23   
    28     30     61      1    1.0968e+02    3.6208e+02 ;    C20 - C22    - H24   
    28     30     62      1    1.0968e+02    3.6208e+02 ;    C20 - C22    - H25   
    28     30     63      1    1.0968e+02    3.6208e+02 ;    C20 - C22    - H26   
    29     28     30      1    1.1263e+02    5.0099e+02 ;    C21 - C20    - C22   
    29     28     57      1    1.0959e+02    3.6217e+02 ;    C21 - C20    - H20   
    30     28     57      1    1.0959e+02    3.6217e+02 ;    C22 - C20    - H20   
    31     32     64      1    1.1988e+02    3.7572e+02 ;    C23 - C24    - H27   
    34     35     65      1    1.1602e+02    4.1924e+02 ;     N8 - C25    - H28   
    36     37     68      1    1.0918e+02    3.6217e+02 ;    C26 - C27    - H31   
    36     37     69      1    1.0918e+02    3.6217e+02 ;    C26 - C27    - H32   
    37     36     66      1    1.0918e+02    3.6217e+02 ;    C27 - C26    - H29   
    37     36     67      1    1.0918e+02    3.6217e+02 ;    C27 - C26    - H30   
    38      1     39      1    1.0773e+02    2.9957e+02 ;     H1 - C1     - H2    
    38      1     40      1    1.0773e+02    2.9957e+02 ;     H1 - C1     - H3    
    39      1     40      1    1.0773e+02    2.9957e+02 ;     H2 - C1     - H3    
    41      2     42      1    1.0855e+02    2.9824e+02 ;     H4 - C2     - H5    
    43      4     44      1    1.0750e+02    2.9932e+02 ;     H6 - C3     - H7    
    45      5     46      1    1.0750e+02    2.9932e+02 ;     H8 - C4     - H9    
    47      7     48      1    1.0855e+02    2.9824e+02 ;    H10 - C5     - H11   
    54     26     55      1    1.0773e+02    2.9957e+02 ;    H17 - C19    - H18   
    54     26     56      1    1.0773e+02    2.9957e+02 ;    H17 - C19    - H19   
    55     26     56      1    1.0773e+02    2.9957e+02 ;    H18 - C19    - H19   
    58     29     59      1    1.0773e+02    2.9957e+02 ;    H21 - C21    - H22   
    58     29     60      1    1.0773e+02    2.9957e+02 ;    H21 - C21    - H23   
    59     29     60      1    1.0773e+02    2.9957e+02 ;    H22 - C21    - H23   
    61     30     62      1    1.0773e+02    2.9957e+02 ;    H24 - C22    - H25   
    61     30     63      1    1.0773e+02    2.9957e+02 ;    H24 - C22    - H26   
    62     30     63      1    1.0773e+02    2.9957e+02 ;    H25 - C22    - H26   
    66     36     67      1    1.0750e+02    2.9932e+02 ;    H29 - C26    - H30   
    68     37     69      1    1.0750e+02    2.9932e+02 ;    H31 - C27    - H32   

[ dihedrals ] ; propers
; for gromacs 4.5 or higher, using funct 9
;    i      j      k      l   func   phase     kd      pn
     1      2      3      4      9     0.00   3.05432   3 ;     C1-    C2-    N1-    C3
     1      2      3     37      9     0.00   3.05432   3 ;     C1-    C2-    N1-   C27
     2      3      4      5      9     0.00   3.05432   3 ;     C2-    N1-    C3-    C4
     2      3      4     43      9     0.00   0.94140   3 ;     C2-    N1-    C3-    H6
     2      3      4     44      9     0.00   0.94140   3 ;     C2-    N1-    C3-    H7
     2      3     37     36      9     0.00   3.05432   3 ;     C2-    N1-   C27-   C26
     2      3     37     68      9     0.00   0.94140   3 ;     C2-    N1-   C27-   H31
     2      3     37     69      9     0.00   0.94140   3 ;     C2-    N1-   C27-   H32
     3      4      5      6      9     0.00   0.65084   3 ;     N1-    C3-    C4-    N2
     3      4      5     45      9     0.00   0.65084   3 ;     N1-    C3-    C4-    H8
     3      4      5     46      9     0.00   0.65084   3 ;     N1-    C3-    C4-    H9
     3     37     36      6      9     0.00   0.65084   3 ;     N1-   C27-   C26-    N2
     3     37     36     66      9     0.00   0.65084   3 ;     N1-   C27-   C26-   H29
     3     37     36     67      9     0.00   0.65084   3 ;     N1-   C27-   C26-   H30
     4      3      2     41      9     0.00   0.94140   3 ;     C3-    N1-    C2-    H4
     4      3      2     42      9     0.00   0.94140   3 ;     C3-    N1-    C2-    H5
     4      3     37     36      9     0.00   3.05432   3 ;     C3-    N1-   C27-   C26
     4      3     37     68      9     0.00   0.94140   3 ;     C3-    N1-   C27-   H31
     4      3     37     69      9     0.00   0.94140   3 ;     C3-    N1-   C27-   H32
     4      5      6      7      9     0.00   3.05432   3 ;     C3-    C4-    N2-    C5
     4      5      6     36      9     0.00   3.05432   3 ;     C3-    C4-    N2-   C26
     5      4      3     37      9     0.00   3.05432   3 ;     C4-    C3-    N1-   C27
     5      6      7      8      9     0.00   1.25520   3 ;     C4-    N2-    C5-    C6
     5      6      7     47      9     0.00   0.94140   3 ;     C4-    N2-    C5-   H10
     5      6      7     48      9     0.00   0.94140   3 ;     C4-    N2-    C5-   H11
     5      6     36     37      9     0.00   3.05432   3 ;     C4-    N2-   C26-   C27
     5      6     36     66      9     0.00   0.94140   3 ;     C4-    N2-   C26-   H29
     5      6     36     67      9     0.00   0.94140   3 ;     C4-    N2-   C26-   H30
     6      5      4     43      9     0.00   0.65084   3 ;     N2-    C4-    C3-    H6
     6      5      4     44      9     0.00   0.65084   3 ;     N2-    C4-    C3-    H7
     6      7      8      9      9     0.00   0.00000   0 ;     N2-    C5-    C6-    C7
     6      7      8     35      9     0.00   0.00000   0 ;     N2-    C5-    C6-   C25
     6     36     37     68      9     0.00   0.65084   3 ;     N2-   C26-   C27-   H31
     6     36     37     69      9     0.00   0.65084   3 ;     N2-   C26-   C27-   H32
     7      6      5     45      9     0.00   0.94140   3 ;     C5-    N2-    C4-    H8
     7      6      5     46      9     0.00   0.94140   3 ;     C5-    N2-    C4-    H9
     7      6     36     37      9     0.00   3.05432   3 ;     C5-    N2-   C26-   C27
     7      6     36     66      9     0.00   0.94140   3 ;     C5-    N2-   C26-   H29
     7      6     36     67      9     0.00   0.94140   3 ;     C5-    N2-   C26-   H30
     7      8      9     10      9   180.00  15.16700   2 ;     C5-    C6-    C7-    C8
     7      8      9     49      9   180.00  15.16700   2 ;     C5-    C6-    C7-   H12
     7      8     35     34      9   180.00  15.16700   2 ;     C5-    C6-   C25-    N8
     7      8     35     65      9   180.00  15.16700   2 ;     C5-    C6-   C25-   H28
     8      7      6     36      9     0.00   1.25520   3 ;     C6-    C5-    N2-   C26
     8      9     10     11      9   180.00  15.16700   2 ;     C6-    C7-    C8-    C9
     8      9     10     50      9   180.00  15.16700   2 ;     C6-    C7-    C8-   H13
     8     35     34     11      9   180.00  20.08320   2 ;     C6-   C25-    N8-    C9
     9      8      7     47      9     0.00   0.00000   0 ;     C7-    C6-    C5-   H10
     9      8      7     48      9     0.00   0.00000   0 ;     C7-    C6-    C5-   H11
     9      8     35     34      9   180.00  15.16700   2 ;     C7-    C6-   C25-    N8
     9      8     35     65      9   180.00  15.16700   2 ;     C7-    C6-   C25-   H28
     9     10     11     12      9   180.00  15.16700   2 ;     C7-    C8-    C9-    N3
     9     10     11     34      9   180.00  15.16700   2 ;     C7-    C8-    C9-    N8
    10      9      8     35      9   180.00  15.16700   2 ;     C8-    C7-    C6-   C25
    10     11     12     13      9   180.00   3.34720   2 ;     C8-    C9-    N3-   C10
    10     11     12     51      9   180.00   4.39320   2 ;     C8-    C9-    N3-   H14
    10     11     34     35      9   180.00  20.08320   2 ;     C8-    C9-    N8-   C25
    11     10      9     49      9   180.00  15.16700   2 ;     C9-    C8-    C7-   H12
    11     12     13     14      9   180.00   4.39320   2 ;     C9-    N3-   C10-    N4
    11     12     13     33      9   180.00   4.39320   2 ;     C9-    N3-   C10-    N7
    11     34     35     65      9   180.00  20.08320   2 ;     C9-    N8-   C25-   H28
    12     11     10     50      9   180.00  15.16700   2 ;     N3-    C9-    C8-   H13
    12     11     34     35      9   180.00  20.08320   2 ;     N3-    C9-    N8-   C25
    12     13     14     15      9   180.00  20.08320   2 ;     N3-   C10-    N4-   C11
    12     13     33     18      9   180.00  20.08320   2 ;     N3-   C10-    N7-   C13
    13     12     11     34      9   180.00   4.39320   2 ;    C10-    N3-    C9-    N8
    13     14     15     16      9   180.00  20.08320   2 ;    C10-    N4-   C11-   C12
    13     14     15     52      9   180.00  20.08320   2 ;    C10-    N4-   C11-   H15
    13     33     18     16      9   180.00   3.64008   2 ;    C10-    N7-   C13-   C12
    13     33     18     19      9   180.00   3.64008   2 ;    C10-    N7-   C13-   C14
    14     13     12     51      9   180.00   4.39320   2 ;     N4-   C10-    N3-   H14
    14     13     33     18      9   180.00  20.08320   2 ;     N4-   C10-    N7-   C13
    14     15     16     17      9   180.00  15.16700   2 ;     N4-   C11-   C12-    F1
    14     15     16     18      9   180.00  15.16700   2 ;     N4-   C11-   C12-   C13
    15     14     13     33      9   180.00  20.08320   2 ;    C11-    N4-   C10-    N7
    15     16     18     19      9   180.00  15.16700   2 ;    C11-   C12-   C13-   C14
    15     16     18     33      9   180.00  15.16700   2 ;    C11-   C12-   C13-    N7
    16     18     19     20      9   180.00   3.20076   2 ;    C12-   C13-   C14-   C15
    16     18     19     32      9   180.00   3.20076   2 ;    C12-   C13-   C14-   C24
    17     16     15     52      9   180.00  15.16700   2 ;     F1-   C12-   C11-   H15
    17     16     18     19      9   180.00  15.16700   2 ;     F1-   C12-   C13-   C14
    17     16     18     33      9   180.00  15.16700   2 ;     F1-   C12-   C13-    N7
    18     16     15     52      9   180.00  15.16700   2 ;    C13-   C12-   C11-   H15
    18     19     20     21      9   180.00  15.16700   2 ;    C13-   C14-   C15-   C16
    18     19     20     53      9   180.00  15.16700   2 ;    C13-   C14-   C15-   H16
    18     19     32     31      9   180.00  15.16700   2 ;    C13-   C14-   C24-   C23
    18     19     32     64      9   180.00  15.16700   2 ;    C13-   C14-   C24-   H27
    19     20     21     22      9   180.00  15.16700   2 ;    C14-   C15-   C16-    F2
    19     20     21     23      9   180.00  15.16700   2 ;    C14-   C15-   C16-   C17
    19     32     31     23      9   180.00  15.16700   2 ;    C14-   C24-   C23-   C17
    19     32     31     27      9   180.00  15.16700   2 ;    C14-   C24-   C23-    N6
    20     19     18     33      9   180.00   4.18400   2 ;    C15-   C14-   C13-    N7
    20     19     32     31      9   180.00  15.16700   2 ;    C15-   C14-   C24-   C23
    20     19     32     64      9   180.00  15.16700   2 ;    C15-   C14-   C24-   H27
    20     21     23     24      9   180.00  15.16700   2 ;    C15-   C16-   C17-    N5
    20     21     23     31      9   180.00  15.16700   2 ;    C15-   C16-   C17-   C23
    21     20     19     32      9   180.00  15.16700   2 ;    C16-   C15-   C14-   C24
    21     23     24     25      9   180.00  20.08320   2 ;    C16-   C17-    N5-   C18
    21     23     31     27      9   180.00  15.16700   2 ;    C16-   C17-   C23-    N6
    21     23     31     32      9   180.00  15.16700   2 ;    C16-   C17-   C23-   C24
    22     21     20     53      9   180.00  15.16700   2 ;     F2-   C16-   C15-   H16
    22     21     23     24      9   180.00  15.16700   2 ;     F2-   C16-   C17-    N5
    22     21     23     31      9   180.00  15.16700   2 ;     F2-   C16-   C17-   C23
    23     21     20     53      9   180.00  15.16700   2 ;    C17-   C16-   C15-   H16
    23     24     25     26      9   180.00  19.87400   2 ;    C17-    N5-   C18-   C19
    23     24     25     27      9   180.00  19.87400   2 ;    C17-    N5-   C18-    N6
    23     31     27     25      9   180.00   1.25520   2 ;    C17-   C23-    N6-   C18
    23     31     27     28      9   180.00   1.25520   2 ;    C17-   C23-    N6-   C20
    23     31     32     64      9   180.00  15.16700   2 ;    C17-   C23-   C24-   H27
    24     23     31     27      9   180.00  15.16700   2 ;     N5-   C17-   C23-    N6
    24     23     31     32      9   180.00  15.16700   2 ;     N5-   C17-   C23-   C24
    24     25     26     54      9     0.00   0.00000   0 ;     N5-   C18-   C19-   H17
    24     25     26     55      9     0.00   0.00000   0 ;     N5-   C18-   C19-   H18
    24     25     26     56      9     0.00   0.00000   0 ;     N5-   C18-   C19-   H19
    24     25     27     28      9   180.00   7.11280   2 ;     N5-   C18-    N6-   C20
    24     25     27     31      9   180.00   7.11280   2 ;     N5-   C18-    N6-   C23
    25     24     23     31      9   180.00  20.08320   2 ;    C18-    N5-   C17-   C23
    25     27     28     29      9     0.00   0.00000   0 ;    C18-    N6-   C20-   C21
    25     27     28     30      9     0.00   0.00000   0 ;    C18-    N6-   C20-   C22
    25     27     28     57      9     0.00   0.00000   0 ;    C18-    N6-   C20-   H20
    25     27     31     32      9   180.00   1.25520   2 ;    C18-    N6-   C23-   C24
    26     25     27     28      9   180.00   7.11280   2 ;    C19-   C18-    N6-   C20
    26     25     27     31      9   180.00   7.11280   2 ;    C19-   C18-    N6-   C23
    27     25     26     54      9     0.00   0.00000   0 ;     N6-   C18-   C19-   H17
    27     25     26     55      9     0.00   0.00000   0 ;     N6-   C18-   C19-   H18
    27     25     26     56      9     0.00   0.00000   0 ;     N6-   C18-   C19-   H19
    27     28     29     58      9     0.00   0.65084   3 ;     N6-   C20-   C21-   H21
    27     28     29     59      9     0.00   0.65084   3 ;     N6-   C20-   C21-   H22
    27     28     29     60      9     0.00   0.65084   3 ;     N6-   C20-   C21-   H23
    27     28     30     61      9     0.00   0.65084   3 ;     N6-   C20-   C22-   H24
    27     28     30     62      9     0.00   0.65084   3 ;     N6-   C20-   C22-   H25
    27     28     30     63      9     0.00   0.65084   3 ;     N6-   C20-   C22-   H26
    27     31     32     64      9   180.00  15.16700   2 ;     N6-   C23-   C24-   H27
    28     27     31     32      9   180.00   1.25520   2 ;    C20-    N6-   C23-   C24
    29     28     27     31      9     0.00   0.00000   0 ;    C21-   C20-    N6-   C23
    29     28     30     61      9     0.00   0.54392   3 ;    C21-   C20-   C22-   H24
    29     28     30     62      9     0.00   0.54392   3 ;    C21-   C20-   C22-   H25
    29     28     30     63      9     0.00   0.54392   3 ;    C21-   C20-   C22-   H26
    30     28     27     31      9     0.00   0.00000   0 ;    C22-   C20-    N6-   C23
    30     28     29     58      9     0.00   0.54392   3 ;    C22-   C20-   C21-   H21
    30     28     29     59      9     0.00   0.54392   3 ;    C22-   C20-   C21-   H22
    30     28     29     60      9     0.00   0.54392   3 ;    C22-   C20-   C21-   H23
    31     27     28     57      9     0.00   0.00000   0 ;    C23-    N6-   C20-   H20
    32     19     18     33      9   180.00   4.18400   2 ;    C24-   C14-   C13-    N7
    32     19     20     53      9   180.00  15.16700   2 ;    C24-   C14-   C15-   H16
    33     13     12     51      9   180.00   4.39320   2 ;     N7-   C10-    N3-   H14
    34     11     10     50      9   180.00  15.16700   2 ;     N8-    C9-    C8-   H13
    34     11     12     51      9   180.00   4.39320   2 ;     N8-    C9-    N3-   H14
    35      8      7     47      9     0.00   0.00000   0 ;    C25-    C6-    C5-   H10
    35      8      7     48      9     0.00   0.00000   0 ;    C25-    C6-    C5-   H11
    35      8      9     49      9   180.00  15.16700   2 ;    C25-    C6-    C7-   H12
    36      6      5     45      9     0.00   0.94140   3 ;    C26-    N2-    C4-    H8
    36      6      5     46      9     0.00   0.94140   3 ;    C26-    N2-    C4-    H9
    36      6      7     47      9     0.00   0.94140   3 ;    C26-    N2-    C5-   H10
    36      6      7     48      9     0.00   0.94140   3 ;    C26-    N2-    C5-   H11
    37      3      2     41      9     0.00   0.94140   3 ;    C27-    N1-    C2-    H4
    37      3      2     42      9     0.00   0.94140   3 ;    C27-    N1-    C2-    H5
    37      3      4     43      9     0.00   0.94140   3 ;    C27-    N1-    C3-    H6
    37      3      4     44      9     0.00   0.94140   3 ;    C27-    N1-    C3-    H7
    38      1      2      3      9     0.00   0.41840   3 ;     H1-    C1-    C2-    N1
    38      1      2     41      9     0.00   0.65084   3 ;     H1-    C1-    C2-    H4
    38      1      2     42      9     0.00   0.65084   3 ;     H1-    C1-    C2-    H5
    39      1      2      3      9     0.00   0.41840   3 ;     H2-    C1-    C2-    N1
    39      1      2     41      9     0.00   0.65084   3 ;     H2-    C1-    C2-    H4
    39      1      2     42      9     0.00   0.65084   3 ;     H2-    C1-    C2-    H5
    40      1      2      3      9     0.00   0.41840   3 ;     H3-    C1-    C2-    N1
    40      1      2     41      9     0.00   0.65084   3 ;     H3-    C1-    C2-    H4
    40      1      2     42      9     0.00   0.65084   3 ;     H3-    C1-    C2-    H5
    43      4      5     45      9     0.00   0.65084   3 ;     H6-    C3-    C4-    H8
    43      4      5     46      9     0.00   0.65084   3 ;     H6-    C3-    C4-    H9
    44      4      5     45      9     0.00   0.65084   3 ;     H7-    C3-    C4-    H8
    44      4      5     46      9     0.00   0.65084   3 ;     H7-    C3-    C4-    H9
    49      9     10     50      9   180.00  15.16700   2 ;    H12-    C7-    C8-   H13
    57     28     29     58      9     0.00   0.65084   3 ;    H20-   C20-   C21-   H21
    57     28     29     59      9     0.00   0.65084   3 ;    H20-   C20-   C21-   H22
    57     28     29     60      9     0.00   0.65084   3 ;    H20-   C20-   C21-   H23
    57     28     30     61      9     0.00   0.65084   3 ;    H20-   C20-   C22-   H24
    57     28     30     62      9     0.00   0.65084   3 ;    H20-   C20-   C22-   H25
    57     28     30     63      9     0.00   0.65084   3 ;    H20-   C20-   C22-   H26
    66     36     37     68      9     0.00   0.65084   3 ;    H29-   C26-   C27-   H31
    66     36     37     69      9     0.00   0.65084   3 ;    H29-   C26-   C27-   H32
    67     36     37     68      9     0.00   0.65084   3 ;    H30-   C26-   C27-   H31
    67     36     37     69      9     0.00   0.65084   3 ;    H30-   C26-   C27-   H32

[ dihedrals ] ; impropers
; treated as propers in GROMACS to use correct AMBER analytical function
;    i      j      k      l   func   phase     kd      pn
     8     10      9     49      4   180.00   4.60240   2 ;     C6-    C8-    C7-   H12
     8     65     35     34      4   180.00   4.60240   2 ;     C6-   H28-   C25-    N8
     9     11     10     50      4   180.00   4.60240   2 ;     C7-    C9-    C8-   H13
     9     35      8      7      4   180.00   4.60240   2 ;     C7-   C25-    C6-    C5
    10     34     11     12      4   180.00   4.60240   2 ;     C8-    N8-    C9-    N3
    11     13     12     51      4   180.00   4.60240   2 ;     C9-   C10-    N3-   H14
    14     33     13     12      4   180.00  43.93200   2 ;     N4-    N7-   C10-    N3
    15     18     16     17      4   180.00   4.60240   2 ;    C11-   C13-   C12-    F1
    16     19     18     33      4   180.00   4.60240   2 ;    C12-   C14-   C13-    N7
    16     52     15     14      4   180.00   4.60240   2 ;    C12-   H15-   C11-    N4
    20     23     21     22      4   180.00   4.60240   2 ;    C15-   C17-   C16-    F2
    20     32     19     18      4   180.00   4.60240   2 ;    C15-   C24-   C14-   C13
    21     19     20     53      4   180.00   4.60240   2 ;    C16-   C14-   C15-   H16
    21     31     23     24      4   180.00   4.60240   2 ;    C16-   C23-   C17-    N5
    23     32     31     27      4   180.00   4.60240   2 ;    C17-   C24-   C23-    N6
    26     27     25     24      4   180.00   4.60240   2 ;    C19-    N6-   C18-    N5
    28     31     27     25      4   180.00   4.60240   2 ;    C20-   C23-    N6-   C18
    31     19     32     64      4   180.00   4.60240   2 ;    C23-   C14-   C24-   H27
