; Abemaciclib_94NAMRd_GMX.top created by acpype (v: 2023.10.27) on Wed Nov  5 09:29:42 2025

[ defaults ]
; nbfunc        comb-rule       gen-pairs       fudgeLJ fudgeQQ
1               2               yes             0.5     0.8333333333

; Include Abemaciclib_94NAMRd_GMX.itp topology
#include "Abemaciclib_94NAMRd_GMX.itp"

; Ligand position restraints
#ifdef POSRES_LIG
#include "posre_Abemaciclib_94NAMRd.itp"
#endif

[ system ]
 Abemaciclib_94NAMRd

[ molecules ]
; Compound        nmols
 Abemaciclib_94NAMRd 1     
