Abemaciclib_94NAMRd_GMX.gro created by acpype (v: 2023.10.27) on Wed Nov  5 09:29:42 2025
   69
    1  MOL   C1    1   6.568   2.130  -0.669
    1  MOL   C2    2   6.510   2.017  -0.587
    1  MOL   N1    3   6.366   2.003  -0.611
    1  MOL   C3    4   6.289   2.060  -0.500
    1  MOL   C4    5   6.138   2.046  -0.526
    1  MOL   N2    6   6.101   2.109  -0.653
    1  MOL   C5    7   5.957   2.095  -0.677
    1  MOL   C6    8   5.886   2.228  -0.671
    1  MOL   C7    9   5.749   2.236  -0.689
    1  MOL   C8   10   5.686   2.360  -0.683
    1  MOL   C9   11   5.764   2.472  -0.659
    1  MOL   N3   12   5.699   2.597  -0.654
    1  MOL  C10   13   5.648   2.673  -0.547
    1  MOL   N4   14   5.599   2.603  -0.443
    1  MOL  C11   15   5.550   2.678  -0.342
    1  MOL  C12   16   5.549   2.816  -0.343
    1  MOL   F1   17   5.499   2.886  -0.240
    1  MOL  C13   18   5.602   2.875  -0.455
    1  MOL  C14   19   5.608   3.019  -0.468
    1  MOL  C15   20   5.490   3.091  -0.491
    1  MOL  C16   21   5.493   3.230  -0.505
    1  MOL   F2   22   5.378   3.297  -0.527
    1  MOL  C17   23   5.616   3.297  -0.494
    1  MOL   N5   24   5.644   3.431  -0.504
    1  MOL  C18   25   5.774   3.439  -0.487
    1  MOL  C19   26   5.854   3.564  -0.488
    1  MOL   N6   27   5.831   3.316  -0.467
    1  MOL  C20   28   5.972   3.289  -0.446
    1  MOL  C21   29   6.019   3.344  -0.311
    1  MOL  C22   30   6.058   3.344  -0.559
    1  MOL  C23   31   5.731   3.223  -0.472
    1  MOL  C24   32   5.732   3.083  -0.457
    1  MOL   N7   33   5.652   2.807  -0.559
    1  MOL   N8   34   5.899   2.468  -0.642
    1  MOL  C25   35   5.956   2.346  -0.649
    1  MOL  C26   36   6.178   2.051  -0.764
    1  MOL  C27   37   6.328   2.066  -0.739
    1  MOL   H1   38   6.512   2.222  -0.649
    1  MOL   H2   39   6.674   2.144  -0.642
    1  MOL   H3   40   6.561   2.106  -0.776
    1  MOL   H4   41   6.560   1.922  -0.614
    1  MOL   H5   42   6.525   2.038  -0.480
    1  MOL   H6   43   6.315   2.008  -0.407
    1  MOL   H7   44   6.313   2.168  -0.493
    1  MOL   H8   45   6.112   1.939  -0.529
    1  MOL   H9   46   6.084   2.096  -0.444
    1  MOL  H10   47   5.942   2.051  -0.776
    1  MOL  H11   48   5.915   2.031  -0.597
    1  MOL  H12   49   5.689   2.146  -0.707
    1  MOL  H13   50   5.577   2.370  -0.696
    1  MOL  H14   51   5.687   2.643  -0.744
    1  MOL  H15   52   5.508   2.626  -0.254
    1  MOL  H16   53   5.395   3.037  -0.499
    1  MOL  H17   54   5.789   3.650  -0.470
    1  MOL  H18   55   5.932   3.559  -0.410
    1  MOL  H19   56   5.903   3.575  -0.586
    1  MOL  H20   57   5.984   3.181  -0.443
    1  MOL  H21   58   5.968   3.440  -0.289
    1  MOL  H22   59   5.997   3.272  -0.231
    1  MOL  H23   60   6.128   3.361  -0.314
    1  MOL  H24   61   6.034   3.449  -0.577
    1  MOL  H25   62   6.164   3.335  -0.534
    1  MOL  H26   63   6.038   3.286  -0.652
    1  MOL  H27   64   5.825   3.028  -0.440
    1  MOL  H28   65   6.065   2.339  -0.635
    1  MOL  H29   66   6.153   1.945  -0.773
    1  MOL  H30   67   6.152   2.105  -0.856
    1  MOL  H31   68   6.383   2.017  -0.820
    1  MOL  H32   69   6.353   2.173  -0.733
   19.91800     9.43000    37.65000
