Abemaciclib_94NAMRd_GMX.gro created by acpype (v: 2023.10.27) on Wed Nov  5 09:29:42 2025
 69
    1  MOL   C1    1  -1.322   2.749   0.768
    1  MOL   C2    2  -1.429   2.658   0.712
    1  MOL   N1    3  -1.561   2.692   0.766
    1  MOL   C3    4  -1.601   2.597   0.870
    1  MOL   C4    5  -1.739   2.634   0.927
    1  MOL   N2    6  -1.739   2.771   0.979
    1  MOL   C5    7  -1.871   2.805   1.032
    1  MOL   C6    8  -1.868   2.823   1.182
    1  MOL   C7    9  -1.983   2.854   1.253
    1  MOL   C8   10  -1.977   2.870   1.391
    1  MOL   C9   11  -1.854   2.855   1.453
    1  MOL   N3   12  -1.849   2.872   1.593
    1  MOL  C10   13  -1.858   2.781   1.700
    1  MOL   N4   14  -1.936   2.673   1.680
    1  MOL  C11   15  -1.943   2.588   1.784
    1  MOL  C12   16  -1.876   2.607   1.903
    1  MOL   F1   17  -1.886   2.519   2.004
    1  MOL  C13   18  -1.799   2.721   1.911
    1  MOL  C14   19  -1.723   2.753   2.030
    1  MOL  C15   20  -1.790   2.795   2.145
    1  MOL  C16   21  -1.720   2.827   2.261
    1  MOL   F2   22  -1.786   2.868   2.371
    1  MOL  C17   23  -1.580   2.815   2.261
    1  MOL   N5   24  -1.489   2.840   2.361
    1  MOL  C18   25  -1.372   2.813   2.308
    1  MOL  C19   26  -1.241   2.824   2.376
    1  MOL   N6   27  -1.383   2.772   2.178
    1  MOL  C20   28  -1.274   2.735   2.090
    1  MOL  C21   29  -1.207   2.605   2.136
    1  MOL  C22   30  -1.171   2.847   2.077
    1  MOL  C23   31  -1.516   2.773   2.145
    1  MOL  C24   32  -1.584   2.740   2.027
    1  MOL   N7   33  -1.788   2.810   1.811
    1  MOL   N8   34  -1.739   2.826   1.387
    1  MOL  C25   35  -1.749   2.811   1.253
    1  MOL  C26   36  -1.699   2.866   0.874
    1  MOL  C27   37  -1.562   2.830   0.818
    1  MOL   H1   38  -1.325   2.746   0.878
    1  MOL   H2   39  -1.223   2.715   0.734
    1  MOL   H3   40  -1.339   2.852   0.734
    1  MOL   H4   41  -1.431   2.668   0.602
    1  MOL   H5   42  -1.406   2.554   0.740
    1  MOL   H6   43  -1.605   2.496   0.827
    1  MOL   H7   44  -1.527   2.602   0.952
    1  MOL   H8   45  -1.814   2.625   0.847
    1  MOL   H9   46  -1.762   2.564   1.009
    1  MOL  H10   47  -1.905   2.899   0.986
    1  MOL  H11   48  -1.940   2.722   1.010
    1  MOL  H12   49  -2.079   2.865   1.201
    1  MOL  H13   50  -2.067   2.894   1.450
    1  MOL  H14   51  -1.836   2.968   1.624
    1  MOL  H15   52  -2.006   2.498   1.774
    1  MOL  H16   53  -1.900   2.804   2.143
    1  MOL  H17   54  -1.256   2.823   2.485
    1  MOL  H18   55  -1.177   2.739   2.347
    1  MOL  H19   56  -1.192   2.918   2.347
    1  MOL  H20   57  -1.317   2.717   1.991
    1  MOL  H21   58  -1.205   2.601   2.246
    1  MOL  H22   59  -1.263   2.519   2.097
    1  MOL  H23   60  -1.104   2.601   2.097
    1  MOL  H24   61  -1.140   2.881   2.177
    1  MOL  H25   62  -1.083   2.811   2.022
    1  MOL  H26   63  -1.216   2.932   2.022
    1  MOL  H27   64  -1.530   2.707   1.937
    1  MOL  H28   65  -1.658   2.787   1.197
    1  MOL  H29   66  -1.773   2.863   0.793
    1  MOL  H30   67  -1.694   2.966   0.918
    1  MOL  H31   68  -1.537   2.899   0.737
    1  MOL  H32   69  -1.487   2.837   0.899
   19.91800     9.43000    37.65000
