%VERSION  VERSION_STAMP = V0001.000  DATE = 11/04/25  20:29:44                  
%FLAG TITLE                                                                     
%FORMAT(20a4)                                                                   
MOL                                                                             
%FLAG POINTERS                                                                  
%FORMAT(10I8)                                                                   
      69      12      32      41      71      59     111      90       0       0
     382       1      41      59      90      24      48      20      16       0
       0       0       0       0       0       0       0       0      69       0
       0
%FLAG ATOM_NAME                                                                 
%FORMAT(20a4)                                                                   
C1  C2  N1  C3  C4  N2  C5  C6  C7  C8  C9  N3  C10 N4  C11 C12 F1  C13 C14 C15 
C16 F2  C17 N5  C18 C19 N6  C20 C21 C22 C23 C24 N7  N8  C25 C26 C27 H1  H2  H3  
H4  H5  H6  H7  H8  H9  H10 H11 H12 H13 H14 H15 H16 H17 H18 H19 H20 H21 H22 H23 
H24 H25 H26 H27 H28 H29 H30 H31 H32 
%FLAG CHARGE                                                                    
%FORMAT(5E16.8)                                                                 
 -2.38894353E+00  3.11236884E+00 -1.34043239E+01  3.10325769E+00  3.03036849E+00
 -1.33314347E+01  4.01072823E+00 -3.72828258E+00 -1.65822930E+00 -3.66814899E+00
  1.08094684E+01 -1.43336612E+01  1.54689105E+01 -1.28831661E+01  7.83923346E+00
 -2.65498911E+00 -2.13018687E+00  9.30795084E+00 -2.30512095E+00 -3.06134640E+00
  3.35108097E+00 -2.20307607E+00  8.81959320E-01 -1.01334210E+01  7.88661144E+00
 -2.12107572E+00 -2.93925699E+00  1.07511570E+00 -2.05183098E+00 -2.05183098E+00
 -1.11520476E+00 -1.80400770E+00 -1.31200560E+01 -1.27738323E+01  7.83923346E+00
  3.03036849E+00  3.10325769E+00  6.99134984E-01  6.99134984E-01  6.99134984E-01
  8.96537160E-01  8.96537160E-01  6.86980710E-01  6.86980710E-01  7.14314160E-01
  7.14314160E-01  7.78092210E-01  7.78092210E-01  2.58756660E+00  2.95201260E+00
  8.03238984E+00  8.03603430E-01  2.87912340E+00  1.17291478E+00  1.17291478E+00
  1.17291478E+00  1.25187201E+00  9.05648310E-01  9.05648310E-01  9.05648310E-01
  9.05648310E-01  9.05648310E-01  9.05648310E-01  2.76978960E+00  7.30714230E-01
  7.14314160E-01  7.14314160E-01  6.86980710E-01  6.86980710E-01
%FLAG ATOMIC_NUMBER                                                             
%FORMAT(10I8)                                                                   
       6       6       7       6       6       7       6       6       6       6
       6       7       6       7       6       6       9       6       6       6
       6       9       6       7       6       6       7       6       6       6
       6       6       7       7       6       6       6       1       1       1
       1       1       1       1       1       1       1       1       1       1
       1       1       1       1       1       1       1       1       1       1
       1       1       1       1       1       1       1       1       1
%FLAG MASS                                                                      
%FORMAT(5E16.8)                                                                 
  1.20100000E+01  1.20100000E+01  1.40100000E+01  1.20100000E+01  1.20100000E+01
  1.40100000E+01  1.20100000E+01  1.20100000E+01  1.20100000E+01  1.20100000E+01
  1.20100000E+01  1.40100000E+01  1.20100000E+01  1.40100000E+01  1.20100000E+01
  1.20100000E+01  1.90000000E+01  1.20100000E+01  1.20100000E+01  1.20100000E+01
  1.20100000E+01  1.90000000E+01  1.20100000E+01  1.40100000E+01  1.20100000E+01
  1.20100000E+01  1.40100000E+01  1.20100000E+01  1.20100000E+01  1.20100000E+01
  1.20100000E+01  1.20100000E+01  1.40100000E+01  1.40100000E+01  1.20100000E+01
  1.20100000E+01  1.20100000E+01  1.00800000E+00  1.00800000E+00  1.00800000E+00
  1.00800000E+00  1.00800000E+00  1.00800000E+00  1.00800000E+00  1.00800000E+00
  1.00800000E+00  1.00800000E+00  1.00800000E+00  1.00800000E+00  1.00800000E+00
  1.00800000E+00  1.00800000E+00  1.00800000E+00  1.00800000E+00  1.00800000E+00
  1.00800000E+00  1.00800000E+00  1.00800000E+00  1.00800000E+00  1.00800000E+00
  1.00800000E+00  1.00800000E+00  1.00800000E+00  1.00800000E+00  1.00800000E+00
  1.00800000E+00  1.00800000E+00  1.00800000E+00  1.00800000E+00
%FLAG ATOM_TYPE_INDEX                                                           
%FORMAT(10I8)                                                                   
       1       1       2       1       1       2       1       3       3       3
       3       4       3       5       3       3       6       3       3       3
       3       6       3       5       3       1       7       1       1       1
       3       3       5       5       3       1       1       8       8       8
       9       9       9       9       9       9       9       9      10      10
      11      12      10       8       8       8       9       8       8       8
       8       8       8      10      12       9       9       9       9
%FLAG NUMBER_EXCLUDED_ATOMS                                                     
%FORMAT(10I8)                                                                   
       9      14      18      13      13      16      15      11      10       8
      10       9       9       7       6       7       4       9      10       9
       8       4       9       9      11       6      16      11       9       8
       3       3       1       4       4       9       8       4       3       2
       1       1       3       2       1       1       1       1       1       1
       1       1       1       2       1       1       6       2       1       1
       2       1       1       1       1       3       2       1       1
%FLAG NONBONDED_PARM_INDEX                                                      
%FORMAT(10I8)                                                                   
       1       2       4       7      11      16      22      29      37      46
      56      67       2       3       5       8      12      17      23      30
      38      47      57      68       4       5       6       9      13      18
      24      31      39      48      58      69       7       8       9      10
      14      19      25      32      40      49      59      70      11      12
      13      14      15      20      26      33      41      50      60      71
      16      17      18      19      20      21      27      34      42      51
      61      72      22      23      24      25      26      27      28      35
      43      52      62      73      29      30      31      32      33      34
      35      36      44      53      63      74      37      38      39      40
      41      42      43      44      45      54      64      75      46      47
      48      49      50      51      52      53      54      55      65      76
      56      57      58      59      60      61      62      63      64      65
      66      77      67      68      69      70      71      72      73      74
      75      76      77      78
%FLAG RESIDUE_LABEL                                                             
%FORMAT(20a4)                                                                   
MOL 
%FLAG RESIDUE_POINTER                                                           
%FORMAT(10I8)                                                                   
       1
%FLAG BOND_FORCE_CONSTANT                                                       
%FORMAT(5E16.8)                                                                 
  2.28890000E+02  3.45250000E+02  2.55850000E+02  3.44220000E+02  2.53330000E+02
  2.26810000E+02  3.42020000E+02  2.43910000E+02  3.54250000E+02  3.60690000E+02
  3.19920000E+02  3.86490000E+02  4.72490000E+02  3.56820000E+02  3.35440000E+02
  3.46070000E+02  2.69370000E+02  3.88520000E+02  3.29990000E+02  4.17790000E+02
  2.53870000E+02  3.32450000E+02  2.54790000E+02  3.29320000E+02
%FLAG BOND_EQUIL_VALUE                                                          
%FORMAT(5E16.8)                                                                 
  1.53540000E+00  1.09620000E+00  1.46260000E+00  1.09690000E+00  1.46570000E+00
  1.53840000E+00  1.09840000E+00  1.51470000E+00  1.39860000E+00  1.08600000E+00
  1.39440000E+00  1.33920000E+00  1.01370000E+00  1.08850000E+00  1.35020000E+00
  1.40560000E+00  1.48290000E+00  1.33770000E+00  1.38520000E+00  1.31710000E+00
  1.50180000E+00  1.38300000E+00  1.46390000E+00  1.38580000E+00
%FLAG ANGLE_FORCE_CONSTANT                                                      
%FORMAT(5E16.8)                                                                 
  6.49000000E+01  4.32800000E+01  4.32700000E+01  7.76800000E+01  4.78400000E+01
  6.54200000E+01  4.78500000E+01  7.81900000E+01  4.32800000E+01  6.54300000E+01
  6.07400000E+01  4.38100000E+01  6.36700000E+01  4.49000000E+01  6.81700000E+01
  4.48000000E+01  6.74900000E+01  7.57600000E+01  5.74600000E+01  8.31500000E+01
  7.42500000E+01  8.29000000E+01  7.27600000E+01  5.01000000E+01  8.05500000E+01
  6.33300000E+01  6.13000000E+01  6.83800000E+01  8.01800000E+01  6.76400000E+01
  4.47300000E+01  6.37900000E+01  6.74000000E+01  8.73200000E+01  6.78200000E+01
  6.65100000E+01  7.65100000E+01  4.39500000E+01  7.54900000E+01  8.35100000E+01
  6.49400000E+01  6.50000000E+01  4.81000000E+01  7.69700000E+01  5.98700000E+01
  3.58000000E+01  3.56400000E+01  3.57700000E+01
%FLAG ANGLE_EQUIL_VALUE                                                         
%FORMAT(5E16.8)                                                                 
  1.97361916E+00  1.91270715E+00  1.91427794E+00  1.96140185E+00  1.92143380E+00
  1.93452377E+00  1.91340528E+00  1.93208031E+00  1.90555129E+00  1.97065210E+00
  2.10888224E+00  1.91288168E+00  2.09474507E+00  2.09230160E+00  2.14570870E+00
  2.09998106E+00  2.10731144E+00  2.27381592E+00  2.00241711E+00  2.04622489E+00
  2.04500316E+00  2.06106020E+00  2.22180509E+00  2.02493187E+00  2.07624457E+00
  2.10713691E+00  2.11359463E+00  2.12249581E+00  2.08444762E+00  2.03540385E+00
  2.09125441E+00  2.06664525E+00  2.12703367E+00  1.81811026E+00  2.09980652E+00
  2.09387240E+00  1.97257197E+00  1.93068405E+00  2.19038915E+00  1.89839544E+00
  2.11935422E+00  1.96576518E+00  1.89822091E+00  2.10312265E+00  1.96576518E+00
  1.88024401E+00  1.89455572E+00  1.87622975E+00
%FLAG DIHEDRAL_FORCE_CONSTANT                                                   
%FORMAT(5E16.8)                                                                 
  7.30000000E-01  2.25000000E-01  1.00000000E-01  1.55555556E-01  3.00000000E-01
  0.00000000E+00  3.62500000E+00  4.80000000E+00  8.00000000E-01  1.05000000E+00
  8.70000000E-01  7.65000000E-01  1.00000000E+00  4.75000000E+00  3.00000000E-01
  0.00000000E+00  1.70000000E+00  1.30000000E-01  1.10000000E+00  1.05000000E+01
%FLAG DIHEDRAL_PERIODICITY                                                      
%FORMAT(5E16.8)                                                                 
  3.00000000E+00  3.00000000E+00  3.00000000E+00  3.00000000E+00  3.00000000E+00
  2.00000000E+00  2.00000000E+00  2.00000000E+00  2.00000000E+00  2.00000000E+00
  2.00000000E+00  2.00000000E+00  2.00000000E+00  2.00000000E+00  2.00000000E+00
  3.00000000E+00  2.00000000E+00  3.00000000E+00  2.00000000E+00  2.00000000E+00
%FLAG DIHEDRAL_PHASE                                                            
%FORMAT(5E16.8)                                                                 
  0.00000000E+00  0.00000000E+00  0.00000000E+00  0.00000000E+00  0.00000000E+00
  0.00000000E+00  3.14159400E+00  3.14159400E+00  3.14159400E+00  3.14159400E+00
  3.14159400E+00  3.14159400E+00  3.14159400E+00  3.14159400E+00  3.14159400E+00
  0.00000000E+00  3.14159400E+00  0.00000000E+00  3.14159400E+00  3.14159400E+00
%FLAG SCEE_SCALE_FACTOR                                                         
%FORMAT(5E16.8)                                                                 
  1.20000000E+00  1.20000000E+00  1.20000000E+00  1.20000000E+00  1.20000000E+00
  1.20000000E+00  1.20000000E+00  1.20000000E+00  1.20000000E+00  1.20000000E+00
  1.20000000E+00  1.20000000E+00  1.20000000E+00  1.20000000E+00  1.20000000E+00
  1.20000000E+00  1.20000000E+00  1.20000000E+00  0.00000000E+00  0.00000000E+00
%FLAG SCNB_SCALE_FACTOR                                                         
%FORMAT(5E16.8)                                                                 
  2.00000000E+00  2.00000000E+00  2.00000000E+00  2.00000000E+00  2.00000000E+00
  2.00000000E+00  2.00000000E+00  2.00000000E+00  2.00000000E+00  2.00000000E+00
  2.00000000E+00  2.00000000E+00  2.00000000E+00  2.00000000E+00  2.00000000E+00
  2.00000000E+00  2.00000000E+00  2.00000000E+00  0.00000000E+00  0.00000000E+00
%FLAG SOLTY                                                                     
%FORMAT(5E16.8)                                                                 
  0.00000000E+00  0.00000000E+00  0.00000000E+00  0.00000000E+00  0.00000000E+00
  0.00000000E+00  0.00000000E+00  0.00000000E+00  0.00000000E+00  0.00000000E+00
  0.00000000E+00  0.00000000E+00  0.00000000E+00  0.00000000E+00  0.00000000E+00
  0.00000000E+00
%FLAG LENNARD_JONES_ACOEF                                                       
%FORMAT(5E16.8)                                                                 
  1.02073671E+06  8.59569453E+05  7.23647490E+05  8.43969952E+05  7.10207765E+05
  6.96551276E+05  9.89136215E+05  8.32102309E+05  8.15700858E+05  9.54886922E+05
  9.31115275E+05  7.84008042E+05  7.69642101E+05  9.01905150E+05  8.49322032E+05
  4.63627012E+05  3.89148854E+05  3.80155513E+05  4.43888519E+05  4.22347898E+05
  2.02652992E+05  9.96191545E+05  8.37490391E+05  8.20152428E+05  9.59384716E+05
  9.08092643E+05  4.43641379E+05  9.62429652E+05  1.00235148E+05  8.37616145E+04
  8.12662403E+04  9.44129241E+04  9.11435380E+04  4.15877422E+04  9.33839501E+04
  7.94617769E+03  6.97998263E+04  5.82112737E+04  5.63013422E+04  6.52595638E+04
  6.34160397E+04  2.82810778E+04  6.42436358E+04  5.22955465E+03  3.39005767E+03
  9.27554496E+04  7.75325560E+04  7.52549148E+04  8.74566229E+04  8.43518904E+04
  3.86097375E+04  8.65595848E+04  7.41026906E+03  4.88692384E+03  6.90855956E+03
  2.23577481E+03  1.82809059E+03  1.71458823E+03  1.94284817E+03  2.01475241E+03
  7.15600927E+02  1.82491629E+03  9.47421632E+01  5.24570081E+01  9.04434904E+01
  1.34728399E-01  7.75673747E+04  6.47735754E+04  6.27751680E+04  7.28718235E+04
  7.05112106E+04  3.19160477E+04  7.19580450E+04  6.02863188E+03  3.94664935E+03
  5.62610481E+03  6.76796831E+01  4.56536476E+03
%FLAG LENNARD_JONES_BCOEF                                                       
%FORMAT(5E16.8)                                                                 
  6.63431737E+02  5.75038595E+02  4.98353106E+02  5.90251928E+02  5.11427129E+02
  5.24668528E+02  7.14570130E+02  6.19045117E+02  6.34916791E+02  7.68192761E+02
  6.12468585E+02  5.30834917E+02  5.44830041E+02  6.59538202E+02  5.65406768E+02
  4.19082844E+02  3.62652376E+02  3.71304925E+02  4.48672968E+02  3.86628088E+02
  2.59697739E+02  7.68900328E+02  6.65894869E+02  6.82622272E+02  8.25605255E+02
  7.09588248E+02  4.80939874E+02  8.86629877E+02  1.37787728E+02  1.18970742E+02
  1.21392023E+02  1.46316625E+02  1.27000718E+02  8.31877412E+01  1.56025608E+02
  2.57122925E+01  1.14981426E+02  9.91793374E+01  1.01040256E+02  1.21646616E+02
  1.05935811E+02  6.86000827E+01  1.29412081E+02  2.08590256E+01  1.67944276E+01
  1.24325688E+02  1.07361937E+02  1.09570372E+02  1.32088478E+02  1.14599119E+02
  7.51823196E+01  1.40899023E+02  2.32899892E+01  1.89134207E+01  2.10929191E+01
  1.71355763E+01  1.46352678E+01  1.46824710E+01  1.74775900E+01  1.57231024E+01
  9.08649254E+00  1.81620725E+01  2.33785449E+00  1.73959275E+00  2.14252117E+00
  7.34107347E-02  1.13692208E+02  9.81312253E+01  1.00073628E+02  1.20572538E+02
  1.04776275E+02  6.83552458E+01  1.28466555E+02  2.10068861E+01  1.69967767E+01
  1.90347353E+01  1.85338491E+00  1.71467049E+01
%FLAG BONDS_INC_HYDROGEN                                                        
%FORMAT(10I8)                                                                   
       0     111       2       0     114       2       0     117       2       3
     120       4       3     123       4       9     126       7       9     129
       7      12     132       7      12     135       7      18     138       4
      18     141       4      24     144      10      27     147      10      33
     150      13      42     153      14      57     156      10      75     159
       2      75     162       2      75     165       2      81     168       4
      84     171       2      84     174       2      84     177       2      87
     180       2      87     183       2      87     186       2      93     189
      10     102     192      14     105     195       7     105     198       7
     108     201       7     108     204       7
%FLAG BONDS_WITHOUT_HYDROGEN                                                    
%FORMAT(10I8)                                                                   
       0       3       1       3       6       3       6       9       5       6
     108       5       9      12       6      12      15       5      15      18
       3      15     105       5      18      21       8      21      24       9
      21     102       9      24      27       9      27      30       9      30
      33      11      30      99      12      33      36      11      36      39
      12      36      96      12      39      42      12      42      45       9
      45      48      15      45      51      16      51      54      17      51
      96      18      54      57      16      54      93      16      57      60
       9      60      63      15      60      66       9      66      69      19
      66      90       9      69      72      20      72      75      21      72
      78      22      78      81      23      78      90      24      81      84
       1      81      87       1      90      93       9      99     102      12
     105     108       6
%FLAG ANGLES_INC_HYDROGEN                                                       
%FORMAT(10I8)                                                                   
       0       3     120       2       0       3     123       2       3       0
     111       3       3       0     114       3       3       0     117       3
       6       3     120       5       6       3     123       5       6       9
     126       7       6       9     129       7       6     108     201       7
       6     108     204       7       9      12     132       9       9      12
     135       9      12       9     126       9      12       9     129       9
      15      12     132       7      15      12     135       7      15      18
     138       5      15      18     141       5      15     105     195       7
      15     105     198       7      21      18     138      12      21      18
     141      12      21      24     144      14      21     102     192      16
      24      27     147      14      27      24     144      14      30      27
     147      14      30      33     150      19      36      33     150      19
      39      42     153      24      45      42     153      16      54      57
     156      31      54      93     189      31      60      57     156      14
      72      75     159      38      72      75     162      38      72      75
     165      38      78      81     168      43      81      84     171       3
      81      84     174       3      81      84     177       3      81      87
     180       3      81      87     183       3      81      87     186       3
      84      81     168       2      87      81     168       2      90      93
     189      14      99     102     192      24     105     108     201       9
     105     108     204       9     108     105     195       9     108     105
     198       9     111       0     114      46     111       0     117      46
     114       0     117      46     120       3     123      47     126       9
     129      48     132      12     135      48     138      18     141      47
     159      75     162      46     159      75     165      46     162      75
     165      46     171      84     174      46     171      84     177      46
     174      84     177      46     180      87     183      46     180      87
     186      46     183      87     186      46     195     105     198      48
     201     108     204      48
%FLAG ANGLES_WITHOUT_HYDROGEN                                                   
%FORMAT(10I8)                                                                   
       0       3       6       1       3       6       9       4       3       6
     108       4       6       9      12       6       6     108     105       6
       9       6     108       8       9      12      15       6      12      15
      18       4      12      15     105       8      15      18      21      10
      15     105     108       6      18      15     105       4      18      21
      24      11      18      21     102      11      21      24      27      13
      21     102      99      15      24      21     102      13      24      27
      30      13      27      30      33      17      27      30      99      15
      30      33      36      18      30      99     102      20      33      30
      99      21      33      36      39      21      33      36      96      21
      36      39      42      20      36      96      51      22      39      36
      96      23      39      42      45      15      42      45      48      25
      42      45      51      26      45      51      54      27      45      51
      96      28      48      45      51      29      51      54      57      27
      51      54      93      27      54      51      96      30      54      57
      60      26      54      93      90      26      57      54      93      32
      57      60      63      25      57      60      66      13      60      66
      69      33      60      66      90      13      63      60      66      25
      66      69      72      34      66      90      78      35      66      90
      93      13      69      66      90      33      69      72      75      36
      69      72      78      37      72      78      81      39      72      78
      90      40      75      72      78      41      78      81      84      42
      78      81      87      42      78      90      93      35      81      78
      90      44      84      81      87      45
%FLAG DIHEDRALS_INC_HYDROGEN                                                    
%FORMAT(10I8)                                                                   
       3       6       9     126       2       3       6       9     129       2
       3       6     108     201       2       3       6     108     204       2
     111       0       3       6       3     114       0       3       6       3
     117       0       3       6       3       6       9      12     132       4
       6       9      12     135       4       6     108     105     195       4
       6     108     105     198       4       9       6       3     120       2
       9       6       3     123       2       9       6     108     201       2
       9       6     108     204       2      12      15      18     138       2
      12      15      18     141       2      12      15     105     195       2
      12      15     105     198       2      15      12       9     126       4
      15      12       9     129       4      15     105     108     201       4
      15     105     108     204       4      18      15      12     132       2
      18      15      12     135       2      18      15     105     195       2
      18      15     105     198       2      18      21      24     144       7
      18      21     102     192       7      21      24      27     147       7
      24      21      18     138       6      24      21      18     141       6
      24      21     102     192       7      27      30      33     150      10
      30      27      24     144       7      30      99     102     192       8
      33      30      27     147       7      36      39      42     153       8
      39      36      33     150      10      48      45      42     153       7
      51      45      42     153       7      51      54      57     156       7
      51      54      93     189       7      57      54      93     189       7
      63      60      57     156       7      66      60      57     156       7
      66      90      93     189       7      69      72      75     159      16
      69      72      75     162      16      69      72      75     165      16
      72      78      81     168       6      78      72      75     159      16
      78      72      75     162      16      78      72      75     165      16
      78      81      84     171       4      78      81      84     174       4
      78      81      84     177       4      78      81      87     180       4
      78      81      87     183       4      78      81      87     186       4
      78      90      93     189       7      84      81      87     180      18
      84      81      87     183      18      84      81      87     186      18
      87      81      84     171      18      87      81      84     174      18
      87      81      84     177      18      90      78      81     168       6
      93      54      57     156       7      96      36      33     150      10
      99      30      27     147       7      99      30      33     150      10
     102      21      18     138       6     102      21      18     141       6
     102      21      24     144       7     105      15      12     132       2
     105      15      12     135       2     105      15      18     138       2
     105      15      18     141       2     108       6       3     120       2
     108       6       3     123       2     108       6       9     126       2
     108       6       9     129       2     111       0       3     120       4
     111       0       3     123       4     114       0       3     120       4
     114       0       3     123       4     117       0       3     120       4
     117       0       3     123       4     126       9      12     132       4
     126       9      12     135       4     129       9      12     132       4
     129       9      12     135       4     144      24      27     147       7
     168      81      84     171       4     168      81      84     174       4
     168      81      84     177       4     168      81      87     180       4
     168      81      87     183       4     168      81      87     186       4
     195     105     108     201       4     195     105     108     204       4
     198     105     108     201       4     198     105     108     204       4
      21      27     -24    -144      19      24      30     -27    -147      19
      30      36     -33    -150      19      45     153     -42     -39      19
      60      54     -57    -156      19      90      54     -93    -189      19
      21     192    -102     -99      19
%FLAG DIHEDRALS_WITHOUT_HYDROGEN                                                
%FORMAT(10I8)                                                                   
       0       3       6       9       1       0       3       6     108       1
       3       6       9      12       1       3       6     108     105       1
       6       9      12      15       4       6     108    -105      15       4
       9       6     108     105       1       9      12      15      18       1
       9      12     -15     105       1      12       9       6     108       1
      12      15      18      21       5      12      15    -105     108       1
      15      18      21      24       6      15      18      21     102       6
      18      15     105     108       1      18      21      24      27       7
      18      21     102      99       7      21      18      15     105       5
      21      24      27      30       7      21     102     -99      30       8
      24      21     102      99       7      24      27      30      33       7
      24      27     -30      99       7      27      24      21     102       7
      27      30      33      36       9      27      30     -99     102       8
      30      33      36      39      10      30      33      36      96      10
      33      30      99     102       8      33      36      39      42       8
      33      36      96      51       8      36      33      30      99      10
      36      39      42      45       8      36      96     -51      45      11
      36      96      51      54      11      39      36      96      51       8
      39      42      45      48       7      39      42     -45      51       7
      42      39      36      96       8      42      45      51      54       7
      42      45     -51      96       7      45      51      54      57      12
      45      51      54      93      12      48      45      51      54       7
      48      45      51      96       7      51      54      57      60       7
      51      54      93      90       7      54      57      60      63       7
      54      57      60      66       7      54      93      90      78       7
      54      93     -90      66       7      57      54      51      96      13
      57      54      93      90       7      57      60      66      69       7
      57      60     -66      90       7      60      57      54      93       7
      60      66      69      72       8      60      66      90      78       7
      60      66     -90      93       7      63      60      66      69       7
      63      60      66      90       7      66      69      72      75      14
      66      69     -72      78      14      66      90     -78      72      15
      66      90      78      81      15      69      66     -90      78       7
      69      66      90      93       7      69      72      78      81      17
      69      72     -78      90      17      72      69     -66      90       8
      72      78      81      84       6      72      78      81      87       6
      72      78      90      93      15      75      72      78      81      17
      75      72      78      90      17      81      78      90      93      15
      84      81      78      90       6      87      81      78      90       6
      93      54      51      96      13      24     102     -21     -18      19
      27      99     -30     -33      19      39      96     -36     -33      20
      42      51     -45     -48      19      45      54     -51     -96      19
      57      93     -54     -51      19      57      66     -60     -63      19
      60      90     -66     -69      19      75      78     -72     -69      19
      81      90     -78     -72      19      66      93     -90     -78      19
%FLAG EXCLUDED_ATOMS_LIST                                                       
%FORMAT(10I8)                                                                   
       2       3       4      37      38      39      40      41      42       3
       4       5      36      37      38      39      40      41      42      43
      44      68      69       4       5       6      36      37      38      39
      40      41      42      43      44      45      46      66      67      68
      69       5       6       7      36      37      41      42      43      44
      45      46      68      69       6       7       8      36      37      43
      44      45      46      47      48      66      67       7       8       9
      35      36      37      43      44      45      46      47      48      66
      67      68      69       8       9      10      34      35      36      37
      45      46      47      48      49      65      66      67       9      10
      11      34      35      36      47      48      49      50      65      10
      11      12      34      35      47      48      49      50      65      11
      12      13      34      35      49      50      51      12      13      14
      33      34      35      49      50      51      65      13      14      15
      18      33      34      35      50      51      14      15      16      18
      19      33      34      51      52      15      16      17      18      33
      51      52      16      17      18      19      33      52      17      18
      19      20      32      33      52      18      19      33      52      19
      20      21      31      32      33      52      53      64      20      21
      22      23      27      31      32      33      53      64      21      22
      23      24      31      32      33      53      64      22      23      24
      25      27      31      32      53      23      24      31      53      24
      25      26      27      28      31      32      53      64      25      26
      27      28      31      32      54      55      56      26      27      28
      29      30      31      32      54      55      56      57      27      28
      31      54      55      56      28      29      30      31      32      54
      55      56      57      58      59      60      61      62      63      64
      29      30      31      32      57      58      59      60      61      62
      63      30      31      57      58      59      60      61      62      63
      31      57      58      59      60      61      62      63      32      57
      64      33      53      64      51      35      50      51      65      47
      48      49      65      37      45      46      47      48      66      67
      68      69      41      42      43      44      66      67      68      69
      39      40      41      42      40      41      42      41      42      42
       0      44      45      46      45      46      46       0      48       0
      50       0       0       0       0      55      56      56       0      58
      59      60      61      62      63      59      60      60       0      62
      63      63       0       0       0      67      68      69      68      69
      69       0
%FLAG HBOND_ACOEF                                                               
%FORMAT(5E16.8)                                                                 

%FLAG HBOND_BCOEF                                                               
%FORMAT(5E16.8)                                                                 

%FLAG HBCUT                                                                     
%FORMAT(5E16.8)                                                                 

%FLAG AMBER_ATOM_TYPE                                                           
%FORMAT(20a4)                                                                   
c3  c3  n3  c6  c6  n3  c3  ca  ca  ca  ca  nu  ca  nb  ca  ca  f   cp  cp  ca  
ca  f   ca  nc  cd  c3  na  c3  c3  c3  ca  ca  nb  nb  ca  c6  c6  hc  hc  hc  
h1  h1  h1  h1  h1  h1  h1  h1  ha  ha  hn  h4  ha  hc  hc  hc  h1  hc  hc  hc  
hc  hc  hc  ha  h4  h1  h1  h1  h1  
%FLAG TREE_CHAIN_CLASSIFICATION                                                 
%FORMAT(20a4)                                                                   
BLA BLA BLA BLA BLA BLA BLA BLA BLA BLA BLA BLA BLA BLA BLA BLA BLA BLA BLA BLA 
BLA BLA BLA BLA BLA BLA BLA BLA BLA BLA BLA BLA BLA BLA BLA BLA BLA BLA BLA BLA 
BLA BLA BLA BLA BLA BLA BLA BLA BLA BLA BLA BLA BLA BLA BLA BLA BLA BLA BLA BLA 
BLA BLA BLA BLA BLA BLA BLA BLA BLA 
%FLAG JOIN_ARRAY                                                                
%FORMAT(10I8)                                                                   
       0       0       0       0       0       0       0       0       0       0
       0       0       0       0       0       0       0       0       0       0
       0       0       0       0       0       0       0       0       0       0
       0       0       0       0       0       0       0       0       0       0
       0       0       0       0       0       0       0       0       0       0
       0       0       0       0       0       0       0       0       0       0
       0       0       0       0       0       0       0       0       0
%FLAG IROTAT                                                                    
%FORMAT(10I8)                                                                   
       0       0       0       0       0       0       0       0       0       0
       0       0       0       0       0       0       0       0       0       0
       0       0       0       0       0       0       0       0       0       0
       0       0       0       0       0       0       0       0       0       0
       0       0       0       0       0       0       0       0       0       0
       0       0       0       0       0       0       0       0       0       0
       0       0       0       0       0       0       0       0       0
%FLAG RADIUS_SET                                                                
%FORMAT(1a80)                                                                   
modified Bondi radii (mbondi)                                                   
%FLAG RADII                                                                     
%FORMAT(5E16.8)                                                                 
  1.70000000E+00  1.70000000E+00  1.55000000E+00  1.70000000E+00  1.70000000E+00
  1.55000000E+00  1.70000000E+00  1.70000000E+00  1.70000000E+00  1.70000000E+00
  1.70000000E+00  1.55000000E+00  1.70000000E+00  1.55000000E+00  1.70000000E+00
  1.70000000E+00  1.50000000E+00  1.70000000E+00  1.70000000E+00  1.70000000E+00
  1.70000000E+00  1.50000000E+00  1.70000000E+00  1.55000000E+00  1.70000000E+00
  1.70000000E+00  1.55000000E+00  1.70000000E+00  1.70000000E+00  1.70000000E+00
  1.70000000E+00  1.70000000E+00  1.55000000E+00  1.55000000E+00  1.70000000E+00
  1.70000000E+00  1.70000000E+00  1.30000000E+00  1.30000000E+00  1.30000000E+00
  1.30000000E+00  1.30000000E+00  1.30000000E+00  1.30000000E+00  1.30000000E+00
  1.30000000E+00  1.30000000E+00  1.30000000E+00  1.30000000E+00  1.30000000E+00
  1.30000000E+00  1.30000000E+00  1.30000000E+00  1.30000000E+00  1.30000000E+00
  1.30000000E+00  1.30000000E+00  1.30000000E+00  1.30000000E+00  1.30000000E+00
  1.30000000E+00  1.30000000E+00  1.30000000E+00  1.30000000E+00  1.30000000E+00
  1.30000000E+00  1.30000000E+00  1.30000000E+00  1.30000000E+00
%FLAG SCREEN                                                                    
%FORMAT(5E16.8)                                                                 
  7.20000000E-01  7.20000000E-01  7.90000000E-01  7.20000000E-01  7.20000000E-01
  7.90000000E-01  7.20000000E-01  7.20000000E-01  7.20000000E-01  7.20000000E-01
  7.20000000E-01  7.90000000E-01  7.20000000E-01  7.90000000E-01  7.20000000E-01
  7.20000000E-01  8.80000000E-01  7.20000000E-01  7.20000000E-01  7.20000000E-01
  7.20000000E-01  8.80000000E-01  7.20000000E-01  7.90000000E-01  7.20000000E-01
  7.20000000E-01  7.90000000E-01  7.20000000E-01  7.20000000E-01  7.20000000E-01
  7.20000000E-01  7.20000000E-01  7.90000000E-01  7.90000000E-01  7.20000000E-01
  7.20000000E-01  7.20000000E-01  8.50000000E-01  8.50000000E-01  8.50000000E-01
  8.50000000E-01  8.50000000E-01  8.50000000E-01  8.50000000E-01  8.50000000E-01
  8.50000000E-01  8.50000000E-01  8.50000000E-01  8.50000000E-01  8.50000000E-01
  8.50000000E-01  8.50000000E-01  8.50000000E-01  8.50000000E-01  8.50000000E-01
  8.50000000E-01  8.50000000E-01  8.50000000E-01  8.50000000E-01  8.50000000E-01
  8.50000000E-01  8.50000000E-01  8.50000000E-01  8.50000000E-01  8.50000000E-01
  8.50000000E-01  8.50000000E-01  8.50000000E-01  8.50000000E-01
%FLAG IPOL                                                                      
%FORMAT(1I8)                                                                    
       0
