MOL
    69
 -13.2160000  27.4910000   7.6800000 -14.2930000  26.5800000   7.1160000
 -15.6090000  26.9240000   7.6550000 -16.0090000  25.9740000   8.7000000
 -17.3870000  26.3350000   9.2660000 -17.3940000  27.7070000   9.7890000
 -18.7090000  28.0500000  10.3250000 -18.6750000  28.2340000  11.8190000
 -19.8310000  28.5380000  12.5310000 -19.7680000  28.7000000  13.9120000
 -18.5350000  28.5510000  14.5260000 -18.4870000  28.7180000  15.9330000
 -18.5810000  27.8090000  16.9980000 -19.3650000  26.7320000  16.8020000
 -19.4320000  25.8790000  17.8450000 -18.7590000  26.0670000  19.0340000
 -18.8560000  25.1920000  20.0400000 -17.9870000  27.2090000  19.1100000
 -17.2310000  27.5260000  20.2960000 -17.9020000  27.9530000  21.4450000
 -17.1980000  28.2710000  22.6140000 -17.8550000  28.6770000  23.7080000
 -15.7990000  28.1520000  22.6080000 -14.8860000  28.3980000  23.6090000
 -13.7150000  28.1290000  23.0760000 -12.4090000  28.2380000  23.7570000
 -13.8270000  27.7190000  21.7760000 -12.7380000  27.3460000  20.9010000
 -12.0670000  26.0490000  21.3590000 -11.7110000  28.4740000  20.7670000
 -15.1590000  27.7250000  21.4480000 -15.8380000  27.4020000  20.2730000
 -17.8750000  28.1040000  18.1060000 -17.3910000  28.2580000  13.8680000
 -17.4910000  28.1060000  12.5280000 -16.9930000  28.6570000   8.7440000
 -15.6160000  28.2960000   8.1790000 -13.2500000  27.4620000   8.7790000
 -12.2290000  27.1490000   7.3350000 -13.3890000  28.5210000   7.3350000
 -14.3150000  26.6840000   6.0210000 -14.0590000  25.5440000   7.4010000
 -16.0490000  24.9620000   8.2710000 -15.2710000  26.0150000   9.5150000
 -18.1380000  26.2500000   8.4670000 -17.6220000  25.6430000  10.0880000
 -19.0500000  28.9860000   9.8590000 -19.3960000  27.2210000  10.0990000
 -20.7910000  28.6500000  12.0050000 -20.6680000  28.9390000  14.4970000
 -18.3610000  29.6770000  16.2420000 -20.0600000  24.9820000  17.7410000
 -18.9980000  28.0410000  21.4310000 -12.5610000  28.2250000  24.8460000
 -11.7720000  27.3900000  23.4660000 -11.9210000  29.1800000  23.4660000
 -13.1710000  27.1670000  19.9060000 -12.0490000  26.0140000  22.4580000
 -12.6330000  25.1880000  20.9740000 -11.0370000  26.0130000  20.9740000
 -11.4040000  28.8110000  21.7680000 -10.8320000  28.1060000  20.2180000
 -12.1600000  29.3150000  20.2180000 -15.3040000  27.0660000  19.3720000
 -16.5760000  27.8660000  11.9660000 -17.7340000  28.6330000   7.9310000
 -16.9400000  29.6640000   9.1840000 -15.3660000  28.9940000   7.3660000
 -14.8740000  28.3680000   8.9880000
